LAMMPS data file via write_data, version 7 Aug 2019, timestep = 440034

500 atoms
1 atom types

-7.2751980271162253e-01 2.8627519802756396e+01 xlo xhi
-7.2751980271162253e-01 2.8627519802756396e+01 ylo yhi
-7.2751980271162253e-01 2.8627519802756396e+01 zlo zhi

Masses

1 83.798

Atoms # atomic

254 1 1.8740668118620540e+00 2.9816238595181925e+00 9.1472444408408582e-01 -1 -1 0
252 1 -4.4149080026746940e-01 4.4997331679154327e+00 4.8747765183794032e+00 -1 -1 0
423 1 2.7872487449772212e+01 5.9974429519863315e-02 3.1946694451467890e+00 2 1 1
161 1 3.9128205100072462e+00 -2.7027757001192776e-01 2.0827587701441388e+00 1 -1 1
474 1 6.4513257266320760e+00 2.5564811932899136e+00 1.2143578176356116e+00 0 -1 3
207 1 1.0352941503741746e+01 2.6285200306699310e+00 4.3270577782279274e-01 2 0 -1
449 1 8.9110876302134923e+00 6.3000584174588248e-01 4.0426046082331064e+00 -2 0 0
267 1 1.0159437520505938e+01 4.5198076236740254e+00 3.6557861727291865e+00 0 2 1
318 1 1.4123057233765593e+01 3.3062181015802539e+00 2.4446563372870078e+00 1 -1 1
176 1 1.5141185921630184e+01 -2.9049607569057972e-01 2.0934275240300031e+00 1 0 1
16 1 1.3055320710110973e+01 6.4612155204584121e-01 5.0743076904926863e+00 1 -1 1
328 1 1.6877648406328941e+01 4.9521271752522820e+00 4.2393079222592744e-01 0 2 0
355 1 1.7739428453963178e+01 1.9879226514299799e+00 4.6027722062744356e+00 0 2 2
334 1 1.8001049685013989e+01 1.0255358883526842e+00 1.9129634857826561e-01 -1 0 0
96 1 2.0820314198878169e+01 7.7781941381606101e-01 2.8896475254004752e+00 -2 0 1
102 1 1.9920833547042836e+01 4.4380348777803782e+00 2.5102599240301715e+00 -2 -1 1
63 1 2.4078917446980526e+01 1.3073823705531096e+00 7.5639253059612743e-01 -3 1 -3
232 1 2.5324577185900491e+01 2.8873744259810086e+00 3.9592754998421782e+00 0 0 0
380 1 2.7815270931532581e+01 1.9375756447749670e+00 -4.0167575474928141e-01 0 0 -2
19 1 2.3492671137261347e+01 5.2486660201338005e+00 1.2574814207547624e+00 0 2 2
40 1 3.2745488354915926e+00 5.8977385748515800e+00 3.3692152255608789e+00 0 -1 0
48 1 4.6809293886332304e-01 8.4145826885441508e+00 3.9270423695569328e+00 0 1 0
278 1 4.1766511612730710e+00 9.3030641657026436e+00 1.5412655091696723e+00 0 0 1
240 1 6.3486350341346953e-01 6.6931394983367012e+00 8.2298163333153762e-01 1 -2 -1
226 1 7.3499920201466917e+00 7.1224782919739900e+00 2.2318241403643242e+00 -2 1 0
7 1 1.0525772709414777e+01 8.0050273141590313e+00 1.3176682447549359e-01 -1 0 0
174 1 1.0156826748951417e+01 9.4713871314125182e+00 4.2849852139068192e+00 2 -2 1
123 1 1.6690144388084921e+01 5.9680781436918648e+00 3.8935545636794338e+00 1 0 0
88 1 1.6119736714717757e+01 8.8392855212754924e+00 6.5159533363628985e-01 -1 0 -1
110 1 1.3354581641435686e+01 6.9960908087892246e+00 2.7929509250250391e+00 -4 2 3
39 1 1.6179228482101113e+01 1.0073678568328422e+01 4.2364684780195763e+00 0 -2 2
256 1 1.3237048173205265e+01 5.4098290699860963e+00 2.8364451070571576e+01 0 1 -1
65 1 1.9828267230428029e+01 7.3985403476734994e+00 6.1759346693340378e-02 -2 0 0
447 1 1.9752630887603797e+01 8.1535128568991198e+00 4.2430346875574445e+00 1 0 1
202 1 1.9246207194774602e+01 1.1226533688533545e+01 1.9956824858122095e+00 0 0 1
305 1 2.3155270174507201e+01 8.9333701264109084e+00 1.3350929431421443e+00 0 2 -1
241 1 2.6827519382104068e+01 6.6759803464133762e+00 2.6547011568348080e+00 -1 3 0
436 1 2.6598498481889276e+01 9.1277418663146737e+00 -2.4693734916719612e-01 2 -2 1
376 1 2.3069873386037475e+01 6.7001098085261823e+00 4.5499126918641037e+00 0 1 0
357 1 2.6395793464616553e+01 1.1075744698674779e+01 3.0293179288590659e+00 -1 0 0
160 1 3.2226325091670405e-01 1.0496854834059896e+01 9.4481973845361855e-01 2 -1 -2
22 1 2.8501037579627821e+00 1.2517876954846523e+01 2.9591704369909495e+00 0 -1 0
434 1 -5.5363281287698485e-01 1.3826293126094960e+01 2.5348129771614683e+00 0 -2 1
137 1 2.1149121772222474e+00 1.4260160858030728e+01 -6.5460005703707602e-01 2 -1 -1
458 1 6.4010162797516337e+00 1.1511533286166054e+01 3.8594891046526518e+00 2 -1 1
92 1 5.4094929469989586e+00 1.5273324510883395e+01 2.4152244932955917e+00 1 1 2
49 1 5.4869554619946301e+00 1.2170847051513316e+01 -1.9409219262765143e-01 -2 1 -1
134 1 9.3257768024175149e+00 1.1617599954264465e+01 1.3435888654604429e+00 0 -2 2
35 1 8.6226995887622948e+00 1.5116456086442525e+01 4.5866614053934951e-01 1 -3 0
313 1 1.2978113562428568e+01 1.0777396861486448e+01 2.0976290775699327e+00 1 1 1
195 1 1.1447769836584769e+01 1.4871096787150087e+01 3.3489071333379785e+00 1 4 1
104 1 1.5717871572917570e+01 1.3009719287174880e+01 2.7964414856956865e-01 -2 1 -1
393 1 1.5639414266188655e+01 1.3870277383013107e+01 4.0514875538645558e+00 3 0 2
409 1 1.2027302017699801e+01 1.3919760361624137e+01 -2.4174815112996612e-01 1 0 -1
443 1 1.9164776209390052e+01 1.4946467150410841e+01 2.0321810361565338e+00 0 0 3
245 1 2.2811537386181627e+01 1.2604707176636243e+01 2.1943231300456336e+00 0 1 0
277 1 2.5735231604841104e+01 1.3044621734134191e+01 -3.8174528461070345e-01 1 2 2
4 1 2.5306247352575113e+01 1.5285231543527797e+01 2.8433581804727126e+00 1 -1 1
105 1 2.0342557478383760e+00 1.6958018836414031e+01 2.7891705342869892e+00 -1 -1 -1
309 1 3.6419832960521275e+00 2.0660387059592679e+01 2.4036041181654388e+00 0 1 2
280 1 -7.8652132440863998e-03 2.0587555196180439e+01 1.3544860516352828e+00 -1 2 2
8 1 5.7378831153041157e+00 1.8718531203261744e+01 4.8442280269468094e+00 0 0 0
372 1 9.4797187912449381e+00 1.8382498375178049e+01 3.5580809166089908e+00 -2 2 0
188 1 7.1835300243210645e+00 1.8609598402896442e+01 -3.5829447996763381e-01 0 1 1
276 1 7.8870325027036916e+00 2.1559675728281285e+01 2.8746150684754657e+00 2 -1 -2
262 1 1.5003569597589090e+01 1.7055299782090096e+01 1.4211438884777490e+00 1 -1 -2
100 1 1.1384005271067037e+01 1.8202119729561417e+01 4.0666188625449728e-01 1 0 -1
359 1 1.2026239996018770e+01 2.1431192373393909e+01 2.2232155741437465e+00 3 0 -2
159 1 1.3916556498099609e+01 1.8850570034427712e+01 4.7543350406236256e+00 -1 -2 1
348 1 1.4455588388146547e+01 2.0443603819896520e+01 -5.1557627001490114e-01 1 1 1
224 1 1.6373129488573412e+01 2.1325313650832172e+01 3.1373102341713954e+00 0 1 -1
58 1 1.8380321483507448e+01 1.8662681543897886e+01 1.0911063516739783e+00 2 -1 0
218 1 2.2116647971040194e+01 1.7210273352044087e+01 1.8646555150459978e+00 -2 0 -1
270 1 2.1590144911913814e+01 2.0747485538718795e+01 4.8913570990297495e-01 0 1 0
315 1 1.7934279419002685e+01 2.1732808563408170e+01 -6.9639329427670593e-01 0 0 2
496 1 1.9799249522443542e+01 2.0980192914917446e+01 4.8719846991421845e+00 1 0 2
120 1 2.7960258796268146e+01 1.7777674542792706e+01 3.8380718065213726e+00 0 0 0
330 1 2.4960429016190510e+01 1.7030882880357630e+01 2.8368171254901231e+01 -1 0 -1
230 1 2.5144590032973376e+01 1.9873521400744533e+01 2.0306101361095648e+00 1 1 0
34 1 1.9734783233515985e+00 2.5485686900362786e+01 2.4573108007042910e+00 0 -1 1
317 1 1.8039622598523486e-01 2.7562634897170263e+01 1.2998182098908062e-01 -1 0 1
342 1 7.6554827651833079e+00 2.8393988630454206e+01 6.5325270724508888e-02 3 -1 2
269 1 5.3198459268555087e+00 2.4063008352405209e+01 1.9933868222545499e+00 1 0 1
89 1 9.6674910642631957e+00 2.4835656543265483e+01 2.0859500394332087e+00 -1 0 2
364 1 6.6756153835720982e+00 2.6770714401387945e+01 4.1113396650988774e+00 0 0 0
3 1 1.1451653889712528e+01 2.8020097405166648e+01 9.9596111265126241e-01 0 -3 0
352 1 1.4962506704010311e+01 2.4350592002274588e+01 1.4556329525092595e+00 0 -1 1
24 1 1.2866864703342257e+01 2.6327065447775240e+01 3.9528318245588565e+00 -1 2 1
213 1 1.6453152490982095e+01 2.4479512305849930e+01 5.1054695698516532e+00 2 1 -1
255 1 1.9244254551869528e+01 2.3611829912270128e+01 2.2584725844896223e+00 1 1 1
492 1 1.8281600316790019e+01 2.7137401050384860e+01 3.1690505556099793e+00 -2 -1 1
373 1 2.1915301396382926e+01 2.6826563658870164e+01 7.6743761816535327e-01 -2 2 -1
127 1 1.8356053461990136e+01 2.6243791043208066e+01 -6.5865698059269562e-01 -1 0 0
413 1 2.1633787820704764e+01 2.6565147271907264e+01 4.7207719950401206e+00 2 -2 1
296 1 2.2896345431182716e+01 2.2824765397331351e+01 3.6177441750528692e+00 -1 0 2
263 1 2.5269733664254126e+01 2.6715432298050832e+01 2.2063115607212356e+00 0 0 1
350 1 2.4538841853590792e+01 2.3359706146585328e+01 -3.4165376544379905e-01 -2 -4 0
201 1 2.7327068467922651e+01 2.3624747184943210e+01 3.2596661714253812e+00 0 -5 -1
339 1 1.8802826974902698e+00 1.9445189532085831e+00 5.1475113147820757e+00 1 1 1
489 1 5.9605431681631371e-01 3.5825959700853049e+00 8.9627495699626092e+00 0 0 0
184 1 3.6016059546832730e+00 1.7569690890809482e+00 1.0396424506698066e+01 0 -1 1
324 1 3.4656798375408009e+00 5.0756192309525794e+00 6.8540741969836043e+00 0 2 1
448 1 6.7785574742293520e+00 4.3567595200129299e+00 5.0911191811704448e+00 -1 -3 2
25 1 5.2362241515596972e+00 1.1893491751477914e+00 6.7146768187523591e+00 -2 -2 -2
109 1 9.7201200115915771e+00 2.1421182567162571e+00 7.5971272579108504e+00 0 0 -1
233 1 6.3930188355605786e+00 4.3930658488128405e+00 9.1907572889206790e+00 0 0 -1
415 1 7.3658888509597862e+00 6.7653378239470996e-01 1.0677812727507408e+01 1 -4 1
336 1 1.0350784715095482e+01 3.4644359618464318e+00 1.1177205413074830e+01 -2 1 0
462 1 1.3236631395327555e+01 1.8569608486278044e+00 8.5377691963562672e+00 -2 1 2
374 1 1.7249815133568749e+01 2.9379188305902675e+00 8.5883191677544080e+00 0 -3 2
26 1 1.9402733556903453e+01 5.0533992109082257e+00 6.3960892567586072e+00 1 -1 0
69 1 2.0347305697912187e+01 2.5303974946917895e-01 8.6575886492096732e+00 -1 3 0
116 1 2.0935962301139028e+01 4.0961919866744028e+00 9.5121728421402398e+00 0 0 -1
215 1 2.8168203042259936e+01 1.1263277140645349e+00 6.7973042411289635e+00 1 -1 1
307 1 2.2236635639608807e+01 2.6462754354885036e+00 6.0326156557247330e+00 0 0 0
387 1 2.4473416058072331e+01 -5.1406795150852336e-01 5.5887851783518041e+00 -1 3 2
306 1 2.4631214873511357e+01 1.2720632615758107e+00 9.1275755960622167e+00 0 0 -1
302 1 2.5794322333076408e+01 4.4415579207862406e+00 7.4620581881166093e+00 -2 0 -1
292 1 2.4306464216661080e+01 4.6978876414626924e+00 1.1045184352648132e+01 2 -1 3
406 1 3.4442813384264950e+00 1.0389102441725587e+01 6.2737720161391142e+00 0 1 0
187 1 7.4607491704798545e-01 7.5774451403402026e+00 7.6398934727640810e+00 1 1 2
59 1 4.4815851061709333e+00 8.4055452473639711e+00 9.2699187603617723e+00 2 -1 1
217 1 3.5435065565101476e-01 9.7466370312001835e+00 1.0570261237812199e+01 0 -2 -2
103 1 6.7623959615132758e+00 8.0653493044749940e+00 5.6863049043978515e+00 -1 -1 -1
70 1 9.8974840855756661e+00 6.3209986942097034e+00 7.3995596815395039e+00 1 -1 -1
433 1 9.2214602145295359e+00 1.0006381318723530e+01 8.3593773030111933e+00 0 2 0
487 1 1.3430905124266598e+01 4.5149357305112936e+00 5.9612282166469175e+00 0 2 -1
183 1 1.2965651861858609e+01 5.8047702719129282e+00 9.7383471902842604e+00 -1 1 0
91 1 1.2709349633947850e+01 9.1433598996121539e+00 7.2095711948617067e+00 1 0 -1
429 1 1.5508481564201450e+01 9.6099907625370999e+00 1.0279603860660044e+01 2 -1 0
229 1 1.6121075084959916e+01 7.2473334976842985e+00 7.1457916128770522e+00 0 -2 -1
66 1 1.1678014867974444e+01 8.8245332513887806e+00 1.1230847938650040e+01 -2 -3 1
244 1 1.7441825542212634e+01 6.1445442191934667e+00 1.0518045680748584e+01 0 2 1
343 1 1.9659929835198536e+01 8.6505029621523803e+00 8.3147914656152491e+00 0 2 2
119 1 2.2554386752479555e+01 1.0271926902127021e+01 6.0277975566657807e+00 -1 -2 2
23 1 2.3184505499141519e+01 7.2112241522314031e+00 8.3319770147685013e+00 -1 -1 0
125 1 2.6980107815010587e+01 6.9350644259057335e+00 9.7507857363436710e+00 1 -1 -1
298 1 2.6194235684464669e+01 8.2480184142896515e+00 5.9132797939912569e+00 1 0 2
128 1 2.5704639205003822e+01 1.0589516489127135e+01 9.3612452154887702e+00 -2 0 -1
117 1 3.9635151966839643e-01 1.4515658992091472e+01 6.2794169134587277e+00 -1 -2 1
404 1 2.3507238167036473e+00 1.2743549142293674e+01 9.2856406384102819e+00 0 -1 -1
463 1 4.4295911265145573e+00 1.5411576584479182e+01 6.7458271813399691e+00 3 3 1
172 1 1.0490112033470791e+00 1.6451839057804303e+01 9.5354262999014328e+00 0 -1 -1
175 1 -6.2810761375759072e-01 1.1123689586722271e+01 6.8347739284930737e+00 -3 1 0
133 1 8.0418152364537523e+00 1.5134106299133228e+01 5.3074815130182369e+00 1 0 1
194 1 4.8737211259260835e+00 1.4959021975457102e+01 1.0567519801208103e+01 3 0 0
469 1 6.3729455135960267e+00 1.2299613930455759e+01 7.8169762979621904e+00 1 1 1
284 1 8.9987388774124550e+00 1.4161293603842481e+01 9.6386242549558752e+00 -1 0 0
289 1 1.0676825317120677e+01 1.6686131955684850e+01 7.0937283477207780e+00 2 2 1
208 1 1.5593278566876762e+01 1.2050226943067631e+01 7.3983918935380011e+00 -2 -1 2
494 1 1.1332498711076482e+01 1.2855160886736158e+01 6.6667036823592696e+00 0 -1 2
71 1 1.4524623924441606e+01 1.5932196157920320e+01 7.2282661570885551e+00 -1 3 0
84 1 1.2265244150209961e+01 1.2624751316456370e+01 1.0337505544365053e+01 -2 2 0
209 1 1.2527302162084537e+01 1.6331954402518608e+01 1.0405546232820459e+01 -1 1 0
427 1 1.5627531201661249e+01 1.4657736307396689e+01 1.1386584059075401e+01 -1 -1 -1
438 1 1.9192815733605059e+01 1.1855259851479715e+01 6.0164385841079318e+00 0 0 2
154 1 1.8551144596336481e+01 1.4946395066384124e+01 7.7642895318889291e+00 -3 -2 0
484 1 2.2069506481230594e+01 1.2492195291119083e+01 9.2661026807737628e+00 -1 -2 3
165 1 2.1506403849132536e+01 1.5288753559202160e+01 5.1612432861699160e+00 -1 1 0
28 1 1.8402840139410472e+01 1.1797576523603299e+01 1.0403015215093506e+01 0 -1 0
295 1 2.7738867717097726e+01 1.3835685350660398e+01 9.5727195416857604e+00 -1 0 1
288 1 2.4936667869517503e+01 1.3367774967895567e+01 6.2047799589760126e+00 1 2 0
403 1 2.3345930244014639e+01 1.6239872951437320e+01 8.3397369706711739e+00 1 2 1
460 1 1.4641173562629044e+00 1.8341639645016826e+01 6.2836849609422032e+00 -1 2 -1
320 1 -6.1299789676771610e-01 1.9669611345437982e+01 9.5629454771098761e+00 1 0 1
44 1 3.5842588113465323e+00 1.9947261432597127e+01 8.6304011225903317e+00 -2 0 -2
260 1 1.0582156353984251e+00 2.1800117233078215e+01 5.1651249711129710e+00 1 -2 -2
1 1 6.9122207767260084e+00 1.7627184940139013e+01 8.4785674217899363e+00 3 -1 0
180 1 7.2563269024412014e+00 2.1322557708733100e+01 8.7310673488903472e+00 2 1 1
182 1 9.8478344802496238e+00 1.8926398741073761e+01 1.0370111405429398e+01 0 1 0
149 1 1.0945355448324845e+01 2.0477247012095503e+01 6.9619309172819248e+00 -2 0 1
500 1 1.3269312774618646e+01 2.0362808222103403e+01 1.0140600493294775e+01 0 -1 1
475 1 1.6100537108363046e+01 2.0782602883350382e+01 7.1295180965233227e+00 0 1 0
419 1 1.7538922860924821e+01 1.7122182734239502e+01 4.6909347309055205e+00 1 -2 3
499 1 1.6744432214576261e+01 1.8125134075048958e+01 9.8393175701752131e+00 1 -1 0
399 1 2.0357166757371370e+01 1.8585486803382409e+01 7.4762487661353241e+00 -1 -1 -1
477 1 1.9034922792052463e+01 2.1829556268569721e+01 9.4403720810925442e+00 -1 -2 0
456 1 2.7061297230105410e+01 1.7170101155809363e+01 7.4923186670198412e+00 -1 2 1
439 1 2.6620176344515482e+01 2.0702074476813078e+01 6.0001839713196894e+00 -2 -1 2
451 1 2.3677014370107823e+01 1.8310625540929973e+01 5.2556310871857370e+00 -1 -1 1
173 1 2.4815784066807442e+01 1.9509798169200526e+01 9.9965090727045141e+00 -2 3 1
369 1 2.8754067225707316e+00 2.6195021908388146e+01 5.8905458323611581e+00 0 1 1
349 1 1.5188583341749888e+00 2.8115498895666715e+01 8.8468000173004775e+00 1 0 -1
212 1 2.8361390970804415e+01 2.6384459764290618e+01 5.7065329936223366e+00 -1 0 1
80 1 2.2123353660574119e+00 2.3852366885418949e+01 8.6830386812796352e+00 -1 0 0
310 1 4.6210481991921668e+00 2.2449146426283786e+01 5.7990630783165766e+00 2 0 0
51 1 4.5326450730003449e+00 2.7308688867425563e+01 1.0412473244332176e+01 2 0 2
77 1 1.1564497539690702e+01 2.3456801026090883e+01 9.1414545723526732e+00 1 1 -1
363 1 9.1083195287470655e+00 2.3749277193236971e+01 5.8424002496778735e+00 0 0 0
274 1 6.1393450554229378e+00 2.5124653969545545e+01 7.9129953390233041e+00 2 1 -1
147 1 9.2845537576802890e+00 2.7386557676469852e+01 7.3345279723307097e+00 -2 0 1
64 1 1.3007614846485572e+01 2.3054100417581587e+01 5.7280432807602768e+00 -3 -1 -3
386 1 1.6690005583252674e+01 2.8349350283730683e+01 6.7510922792717327e+00 1 -1 1
340 1 1.2990949171967646e+01 2.7029784856053691e+01 7.5425866398888015e+00 2 -2 1
57 1 1.5282347965748901e+01 2.4578541752585160e+01 9.1110943835875347e+00 -1 0 -1
483 1 1.5771606890873350e+01 -6.3348360631122724e-01 1.0390561041675427e+01 2 1 1
322 1 1.9239595628846729e+01 2.5032846897182921e+01 7.7598435971221136e+00 -2 1 1
338 1 2.2453137263126898e+01 2.2032581836403228e+01 7.7155879587180980e+00 0 -1 -1
169 1 1.9791050324560800e+01 2.6898579094690934e+01 1.1237443056192346e+01 0 1 0
67 1 2.7532651050582928e+01 2.3386204818679829e+01 8.6366030828122646e+00 -3 -3 1
258 1 2.3056150929360360e+01 2.7162095057565683e+01 8.9110989986510791e+00 1 0 -1
140 1 2.6890081099876447e+01 2.7473340509534026e+01 8.8372121463689250e+00 -2 0 -2
388 1 2.4932530869754867e+01 2.5021811392525056e+01 6.0532373448914853e+00 -3 0 0
445 1 2.4708965093572434e+01 2.4163141415592325e+01 1.0910545577648401e+01 -2 -3 1
54 1 -2.4926754780542959e-01 2.0421260921069406e-01 1.1624352419155128e+01 0 0 -1
171 1 2.0928562223503442e+00 2.6428214878612142e+00 1.3867013623804496e+01 0 0 0
488 1 2.3358756984440263e+00 1.1141529049090033e+00 1.7646679749418418e+01 -2 2 0
204 1 5.5965449910830749e+00 9.9764733104272385e-01 1.3806840853688483e+01 -1 0 -1
55 1 5.8104265403791198e+00 4.3403637710883807e+00 1.2733223500646490e+01 0 1 1
189 1 8.7912305111313103e+00 2.8363576136300788e+00 1.5089268197540983e+01 0 2 -3
354 1 1.1684450954218873e+01 -5.5174724382321771e-01 1.0865789970706933e+01 -2 2 2
490 1 1.5303180864092568e+01 3.3608213043626938e+00 1.2164341419385249e+01 2 -1 0
478 1 1.7156510836333947e+01 1.0299578205907265e+00 1.5780107828350051e+01 2 1 0
441 1 1.3509396052736740e+01 -1.3896981269183151e-01 1.4198235098746524e+01 -2 3 0
118 1 1.4140401126736023e+01 4.3021473103615051e+00 1.6037171109640678e+01 0 -1 1
304 1 1.8847819357914954e+01 1.5632491137424056e+00 1.2140686436527137e+01 -1 3 0
12 1 1.8049167979074433e+01 4.3201471910018627e+00 1.4512932471041960e+01 0 1 -2
464 1 2.2621364589230559e+01 4.7654110332809307e-01 1.2318552626719402e+01 -2 -1 1
216 1 2.1557601524991902e+01 5.7652513539205756e+00 1.3178668403801188e+01 -1 1 0
332 1 2.1034184989340602e+01 1.7571435512217848e+00 1.5738186222669366e+01 1 1 1
27 1 2.5390108917655038e+01 2.2027413982965713e+00 1.3750913490263015e+01 0 -1 -1
454 1 2.7532396370279066e+01 -1.1407152899468032e-02 1.6433346739532013e+01 -1 -1 2
97 1 2.8389526179272153e+01 3.6076354814580327e+00 1.6657121745729160e+01 0 1 0
74 1 2.3968913783723549e+00 6.0362906970367165e+00 1.5161457017595989e+01 2 -1 1
361 1 2.6931411489136345e+00 5.6030787725336637e+00 1.0941898753407488e+01 2 1 1
115 1 1.3003416598773931e+00 9.7071872343134764e+00 1.4550888261178484e+01 3 0 -1
459 1 5.0818066148015797e+00 8.9210002222413252e+00 1.3879851396027535e+01 1 1 0
466 1 8.4008649031016063e+00 6.8029148779976127e+00 1.1745839570694793e+01 -1 -1 2
382 1 7.5310749495574036e+00 6.5281269451794550e+00 1.5862024232594901e+01 0 0 1
411 1 9.4703489580277154e+00 9.3800716853329522e+00 1.4551843596568903e+01 0 0 2
14 1 1.1428373345026483e+01 5.8215672670988674e+00 1.3977974298120227e+01 2 0 0
407 1 1.4989863771728183e+01 6.9872928125866860e+00 1.3573144875779462e+01 2 -1 1
164 1 1.3093896390228721e+01 1.1443341264722445e+01 1.3621968719823517e+01 -1 0 -1
121 1 1.3127835610841393e+01 8.5957046282669989e+00 1.6468724730901030e+01 -2 -1 0
360 1 1.8889408191210219e+01 8.6353374936031777e+00 1.2862621754183774e+01 1 -1 1
365 1 2.2178343390017623e+01 8.8921085871457670e+00 1.5542259271014007e+01 0 0 1
375 1 2.8463888114591768e+01 5.4961563937107414e+00 1.2955625647207571e+01 -1 0 -1
114 1 2.2527351022142113e+01 9.4131715598447627e+00 1.1446320928438215e+01 -1 1 0
200 1 2.5057422171153476e+01 5.4714987341731307e+00 1.5093782755004849e+01 1 1 -3
29 1 2.6541335289647321e+01 8.6966577715077396e+00 1.3454425316036135e+01 -1 1 1
401 1 4.4749803781533437e+00 1.2665778292616265e+01 1.3556573709334739e+01 -2 2 -1
151 1 6.2276461932427218e-01 1.5258312109964306e+01 1.6210031291778055e+01 0 2 -1
303 1 4.6354101324727703e-01 1.3148598770331558e+01 1.2588679226278826e+01 -1 0 2
193 1 2.9371367050944035e+00 1.6236447747200234e+01 1.3241284893451498e+01 0 -1 -1
379 1 4.6203907145998429e+00 1.5324199063396808e+01 1.6915922825845300e+01 -2 0 2
246 1 6.9852988246588961e+00 1.0911611597710911e+01 1.1370981676489000e+01 -2 1 -2
157 1 7.7437481343455214e+00 1.5783272820321539e+01 1.3088994991930848e+01 3 0 1
286 1 9.7425664615506964e+00 1.2725115875098952e+01 1.3171139714035819e+01 -1 -2 1
331 1 6.5224904849104766e+00 1.1703133420242143e+01 1.6775931373413826e+01 0 0 1
130 1 9.0354651771335561e+00 1.4815602300091118e+01 1.6683893597525671e+01 1 1 -2
95 1 1.3071971537948874e+01 1.5065823965073228e+01 1.4577493157365215e+01 -1 0 -1
238 1 1.6932336223583892e+01 1.5387723295348923e+01 1.5526685281824207e+01 0 -2 0
148 1 1.1201204324455706e+01 1.1915824620931492e+01 1.7081105098034467e+01 2 -1 3
358 1 1.9311707071523927e+01 1.5286666630079054e+01 1.1718436776494270e+01 1 -1 2
98 1 1.6821090167288961e+01 1.2107322676001241e+01 1.4210894339464716e+01 1 1 0
76 1 2.1039515884724235e+01 1.2173041771268698e+01 1.3436277529626102e+01 0 0 -1
402 1 2.1123013118632130e+01 1.5387983627088541e+01 1.6208905735112026e+01 -4 -1 2
142 1 2.5008157294369589e+01 1.3480420271187393e+01 1.2252623939879365e+01 -2 -1 0
166 1 2.6036917476038031e+01 1.6320803838196149e+01 1.4902744751590372e+01 -2 1 -3
325 1 2.3907514414944171e+01 1.2293199608512191e+01 1.6073091502695853e+01 -2 0 0
457 1 2.7828357606065957e+01 1.2067350929869209e+01 1.5985828232232357e+01 1 1 1
319 1 2.2612293428837965e+01 1.7624169990373073e+01 1.2044738813367367e+01 -1 0 0
333 1 -5.3194843451584539e-02 1.8334614626358924e+01 1.4357261234411592e+01 0 3 -1
400 1 3.5158486029308769e+00 1.9141933805633752e+01 1.5877860939091828e+01 1 -1 0
430 1 2.1508018368366497e+00 2.0733913517233592e+01 1.2165907968925787e+01 0 0 1
214 1 1.6802317983191428e-02 2.1897970483862945e+01 1.5836288721744140e+01 1 -2 -1
405 1 5.4449738658146627e+00 1.8686411409939382e+01 1.1913641024580746e+01 -1 -2 0
196 1 8.9074217652543020e+00 2.2094433983291474e+01 1.1823405187141438e+01 1 -1 1
486 1 6.1137696649298316e+00 2.2097742160466549e+01 1.4916061849832884e+01 1 -1 -1
476 1 9.9216152812465630e+00 2.1024432739297286e+01 1.6817159547605801e+01 4 1 -1
60 1 1.0835174891326217e+01 1.7761281403704864e+01 1.4397088280044365e+01 2 0 -1
312 1 1.6047047392929581e+01 2.1658265735406655e+01 1.1951143003705960e+01 1 2 2
279 1 1.2372199395137756e+01 2.1610542875292779e+01 1.3585315506886250e+01 0 1 -1
131 1 1.6917998122118128e+01 2.0888255989309776e+01 1.5585222310814402e+01 0 -1 1
37 1 1.5067412857223182e+01 1.8028989845984555e+01 1.3303888039473634e+01 1 2 -1
186 1 1.8965741185422566e+01 1.8995574783300530e+01 1.2847725731289740e+01 2 0 0
335 1 2.1387519943818923e+01 2.1651569250515116e+01 1.5738418793402115e+01 0 -2 -1
491 1 2.2169896483124074e+01 2.1483298384827474e+01 1.1927020898671740e+01 -1 0 1
156 1 2.6748253588562658e+01 1.6973663100056395e+01 1.1696301703971796e+01 0 1 1
139 1 2.7984584379716683e+01 2.2169905133205290e+01 1.2252329614771467e+01 -1 -1 -1
435 1 2.5117191184317079e+01 2.0025432112770766e+01 1.4259827731651445e+01 0 -1 1
271 1 2.3527738609102652e+01 1.8482184994718455e+01 1.7475199647756991e+01 -2 0 0
82 1 2.6006979989777697e+00 2.8107567011521148e+01 1.3814517133826380e+01 -1 -2 0
261 1 -2.9043833474663661e-02 2.5435832290221477e+01 1.1644248066090611e+01 0 0 1
141 1 2.8803013284957313e+00 2.4173305844312683e+01 1.4205774298737758e+01 1 1 -1
150 1 -3.5866695251878983e-01 2.6008196098161907e+01 1.5463588883067231e+01 1 -2 -1
170 1 8.4580007288652777e+00 2.6174373271845191e+01 1.1076021754234425e+01 1 0 -1
408 1 6.1041386606061883e+00 2.6153716084733588e+01 1.4170186411220339e+01 1 -1 -1
9 1 5.2102924285807788e+00 2.3470762390642438e+01 1.1436078061080506e+01 3 0 0
299 1 9.5663898150353788e+00 2.4377264349571817e+01 1.5227022247773084e+01 1 1 -1
235 1 9.5467115748314022e+00 2.8398297902007979e+01 1.4390246606431567e+01 1 -2 0
199 1 1.2831279083072513e+01 2.5568204310035028e+01 1.2888341917772939e+01 1 -1 1
377 1 1.6888913447992014e+01 2.6528447218234987e+01 1.3936855303573191e+01 0 -1 0
356 1 1.3142425179524773e+01 2.2942943746497345e+01 1.7256680527029147e+01 -1 -1 -1
181 1 1.9040500176936202e+01 2.3616322043065679e+01 1.3168860785080243e+01 1 0 -1
420 1 1.9903421116696084e+01 2.7188761613419292e+01 1.5907935269954820e+01 -1 -1 -1
301 1 2.2385157196840890e+01 2.5427008110397718e+01 1.3373821584532966e+01 -2 -1 0
482 1 2.4043724652058973e+01 2.8170861668493632e+01 1.5483573008153147e+01 0 0 1
198 1 2.5705462946253903e+01 2.4022523164724003e+01 1.4584867375859353e+01 -2 0 0
42 1 2.5962044591373228e+01 2.7597778449792802e+01 1.2565222352821559e+01 -3 -3 -2
225 1 -4.5034667136815371e-01 1.8811908946890350e+00 2.0056879392385522e+01 0 1 -2
281 1 4.7908361413634060e+00 4.3787638854697324e+00 2.1184980246434385e+01 -2 -1 -1
479 1 4.2778123717130256e+00 -6.0468458226205113e-01 2.0455632079054819e+01 2 1 0
38 1 5.4869483342590764e+00 3.7647275617598739e+00 1.7303774895310024e+01 0 -2 0
135 1 7.9009438941859074e+00 2.4097244574467913e+00 1.9862120428898507e+01 3 -1 1
468 1 6.5822086592699698e+00 -2.3583670414981595e-01 1.7305671195294710e+01 -1 2 -1
345 1 1.1337814297697822e+01 9.0811407231300767e-01 1.7739600769298857e+01 0 2 1
53 1 1.2341766569818626e+01 2.9734419070010709e+00 2.0914614960716285e+01 0 0 0
124 1 1.5060237475513084e+01 8.7962546804069008e-01 1.8844414848222705e+01 -1 -1 0
394 1 1.0238227388798570e+01 4.8876968238669631e+00 1.8373825620781645e+01 -1 2 1
473 1 2.0526719727997616e+01 4.1328534792859903e+00 2.1010234456875065e+01 0 1 -1
5 1 1.9248810505978462e+01 6.6020607360483252e-01 1.9923008237640659e+01 0 1 -1
389 1 1.7409497796036604e+01 2.2773569813326962e+00 2.2752076303297432e+01 -1 1 0
112 1 1.7393592409281531e+01 3.9079753961320183e+00 1.8392671713054021e+01 -1 1 0
46 1 2.0410243417487525e+01 2.8473863191724313e+01 2.3252988760828863e+01 -1 0 0
384 1 2.2384063879227408e+01 2.8175022197002342e+01 1.8610711065410722e+01 1 2 1
370 1 2.4382973781301452e+01 2.6465164189575652e+00 1.7757186938993613e+01 1 0 0
351 1 2.3928476306450545e+01 2.1657647654806911e+00 2.1701456467951452e+01 -1 1 1
73 1 2.5753066037877041e+01 -2.1636261456708905e-01 2.0082108280613731e+01 0 -1 -1
344 1 2.6644072520400371e+01 4.8376977085496735e+00 2.0391679845533655e+01 1 0 1
398 1 2.0109584874486099e+00 5.0601259452712437e+00 1.8861991410331743e+01 0 -1 1
498 1 4.3349679051292789e+00 8.1073325858144099e+00 2.1447059898828954e+01 2 1 0
327 1 1.1042680907161053e+00 8.7501832565598736e+00 1.9208890343721503e+01 4 1 1
52 1 4.4377398673385793e+00 8.6435782694816101e+00 1.7667021158813274e+01 0 1 -1
272 1 7.4934861888623026e+00 6.5226461163290859e+00 2.0102074329806804e+01 -1 2 1
210 1 7.4325824894638011e+00 1.0618599453158648e+01 2.1163807605880766e+01 -1 -1 -1
17 1 9.8278194157887508e+00 8.5762438056299644e+00 1.8241579101929570e+01 -1 0 -2
122 1 1.1182277002839967e+01 7.0958788920034053e+00 2.1757372352169128e+01 1 -1 -2
465 1 1.4361355765464332e+01 6.0546600931240526e+00 2.0060784492203545e+01 0 -1 0
242 1 1.2723713629777302e+01 1.0071147872394707e+01 2.0068801039130840e+01 -1 -1 -3
329 1 2.1391409530212066e+01 5.3860307707193922e+00 1.7046605600336203e+01 -2 3 -1
234 1 1.7788172322679266e+01 8.4145739057940521e+00 1.6855282968893221e+01 0 -1 1
93 1 1.6846348274151907e+01 1.0330419367237461e+01 2.0579410241866398e+01 -1 0 -2
323 1 2.0460729221422646e+01 7.9426708497604839e+00 2.0117723447777262e+01 -3 0 1
390 1 1.7147416657295668e+01 6.8478480414099154e+00 2.2545536727620139e+01 1 1 -3
378 1 2.8264415166403126e+01 7.4710276733668817e+00 1.6659382001443344e+01 3 1 0
337 1 2.4460017608422010e+01 7.6136306728998662e+00 1.8158177913628723e+01 2 1 0
367 1 2.7437615857325319e+01 8.4835849664565330e+00 2.1846190175636202e+01 0 -1 0
461 1 2.3471138034892000e+01 9.9931127148920531e+00 2.2872272454702980e+01 2 2 1
222 1 3.5500760784690399e+00 1.1609987015184480e+01 2.1164586519768676e+01 0 -2 0
243 1 2.3301705570656455e+00 1.2087322513192198e+01 1.7234094251589820e+01 1 -1 0
293 1 2.6428650110416188e+00 1.5629931164415723e+01 1.9984095151207665e+01 1 1 -1
470 1 -3.4831942330757060e-01 1.3348088440604894e+01 1.9754307088968392e+01 0 -1 0
75 1 6.3191300932161960e+00 1.4060153283852157e+01 2.0105442010833613e+01 1 1 0
72 1 1.0286578879262132e+01 1.3614349959322858e+01 2.0501755898406426e+01 -1 1 -1
453 1 8.3084773915842796e+00 1.5970058439334483e+01 2.2899149137657847e+01 0 1 0
347 1 1.2406681779539804e+01 1.5901033298668811e+01 1.7967570790512774e+01 1 -1 -2
417 1 1.5126973472954433e+01 1.2759760904045756e+01 1.7571967633474554e+01 0 -3 0
223 1 1.4084768480749970e+01 1.3755183754194746e+01 2.1420343750759280e+01 0 1 -1
346 1 1.5967363911224499e+01 1.6558356648091632e+01 1.9495103171505004e+01 0 0 -1
493 1 1.9184859110369722e+01 1.1893707325894539e+01 1.7221101335363322e+01 -1 1 -1
444 1 1.8068957155478095e+01 1.3745001373348281e+01 2.1743232098130040e+01 0 0 0
36 1 2.2733515513746731e+01 1.2551024606917327e+01 2.0401913672044397e+01 0 -2 -1
264 1 2.0936494536810667e+01 1.6234263027354501e+01 2.0216009213449741e+01 1 -2 -1
33 1 2.5953113407280725e+01 1.0951109052469766e+01 1.9096331781877009e+01 1 0 0
86 1 2.5446657342297897e+01 1.5165901523799802e+01 1.8842000681044809e+01 0 1 -1
283 1 2.7880617530571381e+01 1.6592307930516455e+01 2.1571271145630845e+01 -1 -1 0
136 1 2.6218117931046500e+01 1.2889742719106092e+01 2.2805686619805716e+01 -2 1 -2
50 1 1.9244372598549777e+00 1.9542425686198900e+01 1.9519374379372795e+01 1 2 -3
381 1 4.4812398655549748e+00 2.1375811790047067e+01 2.1886095256251814e+01 0 0 0
191 1 7.1495294408139634e+00 1.8133487976093690e+01 1.5991288936576442e+01 -1 0 0
314 1 5.6288484076586078e+00 1.8103754265542729e+01 2.0293156382039264e+01 -1 1 -2