ITEM: TIMESTEP
0
ITEM: NUMBER OF ATOMS
500
ITEM: BOX BOUNDS pp pp pp
-7.2751980271162253e-01 2.8627519802756396e+01
-7.2751980271162253e-01 2.8627519802756396e+01
-7.2751980271162253e-01 2.8627519802756396e+01
ITEM: ATOMS id type x y z 
254 1 1.87407 2.98162 0.914724 
252 1 -0.441491 4.49973 4.87478 
161 1 3.91282 -0.270278 2.08276 
474 1 6.45133 2.55648 1.21436 
207 1 10.3529 2.62852 0.432706 
449 1 8.91109 0.630006 4.0426 
267 1 10.1594 4.51981 3.65579 
448 1 6.77856 4.35676 5.09112 
318 1 14.1231 3.30622 2.44466 
176 1 15.1412 -0.290496 2.09343 
16 1 13.0553 0.646122 5.07431 
328 1 16.8776 4.95213 0.423931 
355 1 17.7394 1.98792 4.60277 
334 1 18.001 1.02554 0.191296 
96 1 20.8203 0.777819 2.88965 
102 1 19.9208 4.43803 2.51026 
423 1 27.8725 0.0599744 3.19467 
63 1 24.0789 1.30738 0.756393 
232 1 25.3246 2.88737 3.95928 
380 1 27.8153 1.93758 -0.401676 
40 1 3.27455 5.89774 3.36922 
48 1 0.468093 8.41458 3.92704 
278 1 4.17665 9.30306 1.54127 
240 1 0.634864 6.69314 0.822982 
160 1 0.322263 10.4969 0.94482 
203 1 4.45219 5.52689 -0.446653 
226 1 7.34999 7.12248 2.23182 
7 1 10.5258 8.00503 0.131767 
174 1 10.1568 9.47139 4.28499 
123 1 16.6901 5.96808 3.89355 
88 1 16.1197 8.83929 0.651595 
110 1 13.3546 6.99609 2.79295 
39 1 16.1792 10.0737 4.23647 
313 1 12.9781 10.7774 2.09763 
65 1 19.8283 7.39854 0.0617593 
447 1 19.7526 8.15351 4.24303 
19 1 23.4927 5.24867 1.25748 
305 1 23.1553 8.93337 1.33509 
241 1 26.8275 6.67598 2.6547 
436 1 26.5985 9.12774 -0.246937 
376 1 23.0699 6.70011 4.54991 
22 1 2.8501 12.5179 2.95917 
434 1 -0.553633 13.8263 2.53481 
137 1 2.11491 14.2602 -0.6546 
458 1 6.40102 11.5115 3.85949 
92 1 5.40949 15.2733 2.41522 
49 1 5.48696 12.1708 -0.194092 
134 1 9.32578 11.6176 1.34359 
35 1 8.6227 15.1165 0.458666 
195 1 11.4478 14.8711 3.34891 
104 1 15.7179 13.0097 0.279644 
393 1 15.6394 13.8703 4.05149 
409 1 12.0273 13.9198 -0.241748 
202 1 19.2462 11.2265 1.99568 
443 1 19.1648 14.9465 2.03218 
357 1 26.3958 11.0757 3.02932 
245 1 22.8115 12.6047 2.19432 
277 1 25.7352 13.0446 -0.381745 
4 1 25.3062 15.2852 2.84336 
105 1 2.03426 16.958 2.78917 
309 1 3.64198 20.6604 2.4036 
280 1 -0.00786521 20.5876 1.35449 
410 1 -0.660392 16.9741 0.00753784 
414 1 2.8638 18.6672 -0.566953 
8 1 5.73788 18.7185 4.84423 
372 1 9.47972 18.3825 3.55808 
188 1 7.18353 18.6096 -0.358294 
276 1 7.88703 21.5597 2.87462 
262 1 15.0036 17.0553 1.42114 
100 1 11.384 18.2021 0.406662 
359 1 12.0262 21.4312 2.22322 
159 1 13.9166 18.8506 4.75434 
348 1 14.4556 20.4436 -0.515576 
224 1 16.3731 21.3253 3.13731 
58 1 18.3803 18.6627 1.09111 
218 1 22.1166 17.2103 1.86466 
270 1 21.5901 20.7475 0.489136 
315 1 17.9343 21.7328 -0.696393 
496 1 19.7992 20.9802 4.87198 
419 1 17.5389 17.1222 4.69093 
120 1 27.9603 17.7777 3.83807 
230 1 25.1446 19.8735 2.03061 
34 1 1.97348 25.4857 2.45731 
317 1 0.180396 27.5626 0.129982 
231 1 2.53364 23.061 -0.378402 
342 1 7.65548 28.394 0.0653253 
269 1 5.31985 24.063 1.99339 
89 1 9.66749 24.8357 2.08595 
364 1 6.67562 26.7707 4.11134 
3 1 11.4517 28.0201 0.995961 
352 1 14.9625 24.3506 1.45563 
24 1 12.8669 26.3271 3.95283 
213 1 16.4532 24.4795 5.10547 
255 1 19.2443 23.6118 2.25847 
492 1 18.2816 27.1374 3.16905 
373 1 21.9153 26.8266 0.767438 
127 1 18.3561 26.2438 -0.658657 
413 1 21.6338 26.5651 4.72077 
296 1 22.8963 22.8248 3.61774 
263 1 25.2697 26.7154 2.20631 
350 1 24.5388 23.3597 -0.341654 
201 1 27.3271 23.6247 3.25967 
43 1 28.165 24.1426 -0.339083 
339 1 1.88028 1.94452 5.14751 
489 1 0.596054 3.5826 8.96275 
184 1 3.60161 1.75697 10.3964 
324 1 3.46568 5.07562 6.85407 
25 1 5.23622 1.18935 6.71468 
109 1 9.72012 2.14212 7.59713 
233 1 6.39302 4.39307 9.19076 
415 1 7.36589 0.676534 10.6778 
462 1 13.2366 1.85696 8.53777 
487 1 13.4309 4.51494 5.96123 
483 1 15.7716 -0.633484 10.3906 
354 1 11.6845 -0.551747 10.8658 
374 1 17.2498 2.93792 8.58832 
26 1 19.4027 5.0534 6.39609 
69 1 20.3473 0.25304 8.65759 
116 1 20.936 4.09619 9.51217 
307 1 22.2366 2.64628 6.03262 
215 1 28.1682 1.12633 6.7973 
387 1 24.4734 -0.514068 5.58879 
306 1 24.6312 1.27206 9.12758 
302 1 25.7943 4.44156 7.46206 
406 1 3.44428 10.3891 6.27377 
187 1 0.746075 7.57745 7.63989 
59 1 4.48159 8.40555 9.26992 
217 1 0.354351 9.74664 10.5703 
361 1 2.69314 5.60308 10.9419 
103 1 6.7624 8.06535 5.6863 
70 1 9.89748 6.321 7.39956 
433 1 9.22146 10.0064 8.35938 
183 1 12.9657 5.80477 9.73835 
91 1 12.7093 9.14336 7.20957 
429 1 15.5085 9.60999 10.2796 
229 1 16.1211 7.24733 7.14579 
244 1 17.4418 6.14454 10.518 
343 1 19.6599 8.6505 8.31479 
119 1 22.5544 10.2719 6.0278 
23 1 23.1845 7.21122 8.33198 
125 1 26.9801 6.93506 9.75079 
298 1 26.1942 8.24802 5.91328 
128 1 25.7046 10.5895 9.36125 
117 1 0.396352 14.5157 6.27942 
404 1 2.35072 12.7435 9.28564 
463 1 4.42959 15.4116 6.74583 
172 1 1.04901 16.4518 9.53543 
175 1 -0.628108 11.1237 6.83477 
194 1 4.87372 14.959 10.5675 
133 1 8.04182 15.1341 5.30748 
469 1 6.37295 12.2996 7.81698 
284 1 8.99874 14.1613 9.63862 
289 1 10.6768 16.6861 7.09373 
208 1 15.5933 12.0502 7.39839 
494 1 11.3325 12.8552 6.6667 
71 1 14.5246 15.9322 7.22827 
84 1 12.2652 12.6248 10.3375 
209 1 12.5273 16.332 10.4055 
438 1 19.1928 11.8553 6.01644 
154 1 18.5511 14.9464 7.76429 
484 1 22.0695 12.4922 9.2661 
165 1 21.5064 15.2888 5.16124 
28 1 18.4028 11.7976 10.403 
295 1 27.7389 13.8357 9.57272 
288 1 24.9367 13.3678 6.20478 
403 1 23.3459 16.2399 8.33974 
460 1 1.46412 18.3416 6.28368 
320 1 -0.612998 19.6696 9.56295 
44 1 3.58426 19.9473 8.6304 
260 1 1.05822 21.8001 5.16512 
310 1 4.62105 22.4491 5.79906 
1 1 6.91222 17.6272 8.47857 
180 1 7.25633 21.3226 8.73107 
182 1 9.84783 18.9264 10.3701 
149 1 10.9454 20.4772 6.96193 
500 1 13.2693 20.3628 10.1406 
475 1 16.1005 20.7826 7.12952 
499 1 16.7444 18.1251 9.83932 
399 1 20.3572 18.5855 7.47625 
477 1 19.0349 21.8296 9.44037 
338 1 22.4531 22.0326 7.71559 
456 1 27.0613 17.1701 7.49232 
439 1 26.6202 20.7021 6.00018 
451 1 23.677 18.3106 5.25563 
173 1 24.8158 19.5098 9.99651 
369 1 2.87541 26.195 5.89055 
349 1 1.51886 28.1155 8.8468 
80 1 2.21234 23.8524 8.68304 
51 1 4.53265 27.3087 10.4125 
363 1 9.10832 23.7493 5.8424 
274 1 6.13935 25.1247 7.913 
147 1 9.28455 27.3866 7.33453 
77 1 11.5645 23.4568 9.14145 
64 1 13.0076 23.0541 5.72804 
386 1 16.69 28.3494 6.75109 
340 1 12.9909 27.0298 7.54259 
57 1 15.2823 24.5785 9.11109 
322 1 19.2396 25.0328 7.75984 
212 1 28.3614 26.3845 5.70653 
67 1 27.5327 23.3862 8.6366 
258 1 23.0562 27.1621 8.9111 
140 1 26.8901 27.4733 8.83721 
388 1 24.9325 25.0218 6.05324 
445 1 24.709 24.1631 10.9105 
54 1 -0.249268 0.204213 11.6244 
171 1 2.09286 2.64282 13.867 
336 1 10.3508 3.46444 11.1772 
204 1 5.59654 0.997647 13.8068 
55 1 5.81043 4.34036 12.7332 
189 1 8.79123 2.83636 15.0893 
490 1 15.3032 3.36082 12.1643 
441 1 13.5094 -0.13897 14.1982 
118 1 14.1404 4.30215 16.0372 
478 1 17.1565 1.02996 15.7801 
304 1 18.8478 1.56325 12.1407 
12 1 18.0492 4.32015 14.5129 
464 1 22.6214 0.476541 12.3186 
332 1 21.0342 1.75714 15.7382 
292 1 24.3065 4.69789 11.0452 
27 1 25.3901 2.20274 13.7509 
454 1 27.5324 -0.0114072 16.4333 
97 1 28.3895 3.60764 16.6571 
74 1 2.39689 6.03629 15.1615 
115 1 1.30034 9.70719 14.5509 
459 1 5.08181 8.921 13.8799 
466 1 8.40086 6.80291 11.7458 
382 1 7.53107 6.52813 15.862 
411 1 9.47035 9.38007 14.5518 
246 1 6.9853 10.9116 11.371 
66 1 11.678 8.82453 11.2308 
14 1 11.4284 5.82157 13.978 
407 1 14.9899 6.98729 13.5731 
121 1 13.1278 8.5957 16.4687 
216 1 21.5576 5.76525 13.1787 
360 1 18.8894 8.63534 12.8626 
365 1 22.1783 8.89211 15.5423 
114 1 22.5274 9.41317 11.4463 
234 1 17.7882 8.41457 16.8553 
375 1 28.4639 5.49616 12.9556 
200 1 25.0574 5.4715 15.0938 
29 1 26.5413 8.69666 13.4544 
378 1 28.2644 7.47103 16.6594 
401 1 4.47498 12.6658 13.5566 
151 1 0.622765 15.2583 16.21 
303 1 0.463541 13.1486 12.5887 
193 1 2.93714 16.2364 13.2413 
157 1 7.74375 15.7833 13.089 
286 1 9.74257 12.7251 13.1711 
331 1 6.52249 11.7031 16.7759 
130 1 9.03547 14.8156 16.6839 
427 1 15.6275 14.6577 11.3866 
164 1 13.0939 11.4433 13.622 
95 1 13.072 15.0658 14.5775 
98 1 16.8211 12.1073 14.2109 
238 1 16.9323 15.3877 15.5267 
358 1 19.3117 15.2867 11.7184 
76 1 21.0395 12.173 13.4363 
402 1 21.123 15.388 16.2089 
142 1 25.0082 13.4804 12.2526 
166 1 26.0369 16.3208 14.9027 
325 1 23.9075 12.2932 16.0731 
457 1 27.8284 12.0674 15.9858 
333 1 -0.0531948 18.3346 14.3573 
400 1 3.51585 19.1419 15.8779 
430 1 2.1508 20.7339 12.1659 
214 1 0.0168023 21.898 15.8363 
405 1 5.44497 18.6864 11.9136 
196 1 8.90742 22.0944 11.8234 
486 1 6.11377 22.0977 14.9161 
476 1 9.92162 21.0244 16.8172 
60 1 10.8352 17.7613 14.3971 
191 1 7.14953 18.1335 15.9913 
312 1 16.047 21.6583 11.9511 
279 1 12.3722 21.6105 13.5853 
37 1 15.0674 18.029 13.3039 
316 1 13.7645 19.2867 16.5186 
319 1 22.6123 17.6242 12.0447 
131 1 16.918 20.8883 15.5852 
186 1 18.9657 18.9956 12.8477 
335 1 21.3875 21.6516 15.7384 
491 1 22.1699 21.4833 11.927 
156 1 26.7483 16.9737 11.6963 
139 1 27.9846 22.1699 12.2523 
435 1 25.1172 20.0254 14.2598 
82 1 2.6007 28.1076 13.8145 
261 1 -0.0290438 25.4358 11.6442 
141 1 2.8803 24.1733 14.2058 
150 1 -0.358667 26.0082 15.4636 
170 1 8.458 26.1744 11.076 
408 1 6.10414 26.1537 14.1702 
9 1 5.21029 23.4708 11.4361 
299 1 9.56639 24.3773 15.227 
235 1 9.54671 28.3983 14.3902 
199 1 12.8313 25.5682 12.8883 
169 1 19.7911 26.8986 11.2374 
377 1 16.8889 26.5284 13.9369 
181 1 19.0405 23.6163 13.1689 
420 1 19.9034 27.1888 15.9079 
301 1 22.3852 25.427 13.3738 
482 1 24.0437 28.1709 15.4836 
198 1 25.7055 24.0225 14.5849 
42 1 25.962 27.5978 12.5652 
488 1 2.33588 1.11415 17.6467 
225 1 -0.450347 1.88119 20.0569 
281 1 4.79084 4.37876 21.185 
479 1 4.27781 -0.604685 20.4556 
398 1 2.01096 5.06013 18.862 
38 1 5.48695 3.76473 17.3038 
135 1 7.90094 2.40972 19.8621 
468 1 6.58221 -0.235837 17.3057 
394 1 10.2382 4.8877 18.3738 
345 1 11.3378 0.908114 17.7396 
53 1 12.3418 2.97344 20.9146 
124 1 15.0602 0.879625 18.8444 
473 1 20.5267 4.13285 21.0102 
5 1 19.2488 0.660206 19.923 
389 1 17.4095 2.27736 22.7521 
112 1 17.3936 3.90798 18.3927 
370 1 24.383 2.64652 17.7572 
351 1 23.9285 2.16576 21.7015 
73 1 25.7531 -0.216363 20.0821 
344 1 26.6441 4.8377 20.3917 
498 1 4.33497 8.10733 21.4471 
327 1 1.10427 8.75018 19.2089 
52 1 4.43774 8.64358 17.667 
272 1 7.49349 6.52265 20.1021 
210 1 7.43258 10.6186 21.1638 
17 1 9.82782 8.57624 18.2416 
122 1 11.1823 7.09588 21.7574 
465 1 14.3614 6.05466 20.0608 
242 1 12.7237 10.0711 20.0688 
93 1 16.8463 10.3304 20.5794 
329 1 21.3914 5.38603 17.0466 
323 1 20.4607 7.94267 20.1177 
390 1 17.1474 6.84785 22.5455 
337 1 24.46 7.61363 18.1582 
367 1 27.4376 8.48358 21.8462 
33 1 25.9531 10.9511 19.0963 
90 1 23.7152 6.19716 22.3466 
379 1 4.62039 15.3242 16.9159 
222 1 3.55008 11.61 21.1646 
243 1 2.33017 12.0873 17.2341 
293 1 2.64287 15.6299 19.9841 
470 1 -0.348319 13.3481 19.7543 
75 1 6.31913 14.0602 20.1054 
72 1 10.2866 13.6143 20.5018 
148 1 11.2012 11.9158 17.0811 
347 1 12.4067 15.901 17.9676 
417 1 15.127 12.7598 17.572 
223 1 14.0848 13.7552 21.4203 
346 1 15.9674 16.5584 19.4951 
493 1 19.1849 11.8937 17.2211 
444 1 18.069 13.745 21.7432 
36 1 22.7335 12.551 20.4019 
264 1 20.9365 16.2343 20.216 
86 1 25.4467 15.1659 18.842 
283 1 27.8806 16.5923 21.5713 
145 1 23.9064 15.7127 22.7236 
50 1 1.92444 19.5424 19.5194 
381 1 4.48124 21.3758 21.8861 
314 1 5.62885 18.1038 20.2932 
106 1 6.62973 21.4334 18.7469 
481 1 9.46845 17.5035 19.1665 
206 1 9.02364 19.7864 21.9976 
155 1 16.2328 20.7141 19.0631 
163 1 12.4091 20.2531 19.8427 
138 1 15.208 19.9738 22.7503 
472 1 19.3961 18.5759 17.5009 
83 1 18.9271 19.2724 21.4589 
371 1 21.3604 21.4817 19.5514 
271 1 23.5277 18.4822 17.4752 
47 1 27.5128 18.3695 18.1068 
418 1 28.5608 20.7713 21.5591 
266 1 24.7402 18.8436 21.004 
275 1 25.5274 21.6423 18.6093 
321 1 25.4753 22.3646 22.3015 
237 1 3.49071 26.6879 17.2221 
308 1 2.96537 22.9565 17.9355 
248 1 -0.494141 23.6607 19.2618 
85 1 0.225708 27.382 19.5897 
455 1 2.3364 24.4442 22.1555 
31 1 6.42048 25.3835 22.002 
383 1 9.6627 23.6782 20.067 
446 1 6.88472 25.2204 17.7886 
113 1 8.73253 27.8691 20.2485 
356 1 13.1424 22.9429 17.2567 
250 1 12.148 26.7271 17.3302 
197 1 12.6648 28.3382 21.1607 
467 1 16.4079 26.9112 17.7434 
416 1 13.8509 24.466 20.2517 
471 1 16.8327 27.8097 21.8305 
384 1 22.3841 28.175 18.6107 
421 1 21.4389 23.3813 22.6316 
205 1 18.5723 23.53 17.8771 
177 1 17.6816 22.8327 22.0007 
78 1 22.657 24.6457 17.496 
153 1 19.5624 25.9179 20.4055 
297 1 26.2688 26.0169 18.0956 
497 1 27.3013 25.5066 22.1753 
251 1 23.6935 25.7707 21.1404 
391 1 1.95938 2.56117 23.1552 
185 1 4.27882 1.80384 27.5092 
220 1 0.77953 0.474868 26.4432 
107 1 0.813356 4.59445 26.8576 
6 1 -0.16702 -0.596589 22.9633 
265 1 5.34264 4.43052 25.0846 
144 1 5.9475 1.56861 23.288 
282 1 8.83026 4.46433 23.1671 
395 1 9.64536 0.952883 23.5615 
99 1 7.85312 1.85005 26.781 
94 1 10.9945 -0.545821 26.8751 
111 1 14.0864 1.84013 28.2585 
396 1 11.1529 3.48525 25.8657 
81 1 13.898 0.539401 24.2519 
294 1 14.0754 5.14094 23.9912 
56 1 17.331 3.27157 26.4107 
442 1 17.3915 -0.468753 25.7711 
45 1 20.8858 3.29032 28.2507 
227 1 21.353 2.76921 24.4781 
61 1 21.6372 -0.28919 27.312 
353 1 24.6139 2.44204 26.6137 
20 1 27.6909 2.6496 23.7177 
15 1 0.829674 6.27445 23.063 
426 1 0.778083 10.8673 23.375 
68 1 3.85466 8.2753 24.9725 
129 1 0.183735 8.16935 26.7237 
18 1 8.40314 5.52165 27.746 
192 1 6.59994 8.86452 27.8149 
273 1 7.48558 7.81114 24.2703 
32 1 10.8126 10.5613 23.2975 
256 1 13.237 5.40983 28.3645 
236 1 11.2556 7.55663 25.6612 
290 1 16.1343 7.2249 26.7899 
432 1 14.4712 9.31764 23.8577 
366 1 13.3688 9.85603 27.6886 
79 1 19.4486 9.83503 23.6258 
397 1 19.6739 6.69481 25.4524 
424 1 18.7287 10.6791 27.5132 
461 1 23.4711 9.99311 22.8723 
268 1 22.9372 10.5168 26.9932 
167 1 26.7431 5.39319 28.4557 
437 1 23.2342 6.20894 26.4531 
452 1 26.7756 5.95764 24.797 
300 1 26.4278 9.83157 25.6701 
368 1 4.58725 14.5933 23.5134 
425 1 0.853358 14.838 24.0963 
211 1 3.25025 11.8271 26.0972 
178 1 -0.622941 12.4601 26.8301 
453 1 8.30848 15.9701 22.8991 
362 1 5.95898 15.5478 27.2335 
190 1 9.58876 11.4328 26.8472 
450 1 6.72948 11.8021 24.9169 
62 1 10.0207 16.1532 26.3921 
11 1 12.7683 13.4456 25.0135 
146 1 16.1067 16.3458 23.7308 
257 1 16.6988 12.7134 25.0487 
440 1 14.0762 16.5711 27.0513 
480 1 21.6985 14.6685 28.2878 
485 1 19.7945 16.368 24.2248 
311 1 17.904 15.2851 27.6263 
2 1 21.8893 13.4305 24.7057 
136 1 26.2181 12.8897 22.8057 
101 1 26.8489 15.4795 25.6974 
219 1 2.85015 18.1073 23.0786 
108 1 3.07439 21.1433 25.5039 
285 1 0.277527 18.3866 25.7325 
87 1 -0.134501 22.6121 24.957 
287 1 6.00314 21.9241 28.0912 
239 1 9.54044 21.445 28.301 
221 1 6.31455 19.2622 25.065 
428 1 8.48395 22.5336 24.5567 
126 1 12.1686 17.094 22.8257 
326 1 12.0013 19.7545 25.6257 
152 1 17.0656 18.799 26.354 
431 1 22.0205 19.2044 23.3239 
179 1 21.5084 18.1975 27.2456 
30 1 19.3343 21.5026 25.1473 
330 1 24.9604 17.0309 28.3682 
162 1 23.4993 21.4934 25.8027 
341 1 27.2643 20.2802 27.5936 
132 1 26.0517 18.8234 24.5161 
253 1 3.88268 26.8553 28.3369 
13 1 3.48208 27.8149 24.1018 
495 1 4.88359 24.4662 25.3759 
158 1 0.69661 26.0034 26.0516 
291 1 10.26 26.1405 23.7365 
228 1 8.22311 24.9459 27.6791 
392 1 6.90665 27.7246 25.4634 
168 1 12.4055 22.8864 23.1189 
247 1 15.6483 22.9936 25.818 
385 1 14.6238 27.0687 28.3507 
41 1 12.3203 24.1577 27.2209 
143 1 14.3339 26.0948 24.2526 
46 1 20.4102 28.4739 23.253 
249 1 18.7044 25.502 24.5383 
422 1 21.0196 23.8437 27.6196 
412 1 22.6787 26.1658 25.3528 
10 1 25.3295 28.5819 23.6884 
21 1 26.2001 27.8189 27.893 
259 1 26.2193 24.7419 25.8304 
ITEM: TIMESTEP
5000
ITEM: NUMBER OF ATOMS
500
ITEM: BOX BOUNDS pp pp pp
-7.2751980271162253e-01 2.8627519802756396e+01
-7.2751980271162253e-01 2.8627519802756396e+01
-7.2751980271162253e-01 2.8627519802756396e+01
ITEM: ATOMS id type x y z 
254 1 2.33327 2.65746 0.641327 
161 1 4.56266 -0.266589 4.31338 
423 1 0.850762 0.839547 4.19252 
474 1 6.4337 2.42048 1.43107 
207 1 10.4998 2.71538 1.05476 
449 1 8.47847 0.914096 4.31673 
267 1 9.56063 4.67134 4.974 
318 1 13.9211 2.87662 2.61229 
328 1 16.2278 4.78654 0.427923 
355 1 17.4977 1.39292 3.96276 
256 1 12.7142 5.13309 -0.590863 
334 1 17.872 0.648563 0.135832 
96 1 21.2773 0.93149 2.81943 
102 1 20.4023 4.73027 2.80713 
63 1 25.3633 0.175265 2.31177 
232 1 26.9947 3.09546 3.98984 
380 1 27.9628 2.80842 0.613135 
19 1 23.7338 3.82324 1.25286 
40 1 3.66991 5.50685 3.15542 
48 1 -0.0946879 9.06011 3.85243 
278 1 3.18792 8.97942 1.56933 
240 1 0.548107 6.34354 0.703451 
226 1 7.28145 6.40392 2.5872 
174 1 10.03 8.96852 4.57435 
458 1 6.29449 10.0263 3.41366 
192 1 7.14172 8.61931 -0.313565 
7 1 11.3594 8.78925 -0.397541 
123 1 16.7268 5.34429 4.51252 
88 1 15.4928 8.76316 0.426987 
110 1 12.9988 6.69746 2.71149 
39 1 16.0659 9.43583 4.28053 
65 1 19.309 7.6892 -0.0870505 
447 1 19.9635 8.19076 4.15951 
305 1 23.271 8.52134 1.7768 
202 1 18.8262 10.8327 1.71266 
241 1 26.3277 6.32524 2.54107 
436 1 27.4037 9.63306 0.12407 
376 1 23.448 6.13672 5.09464 
167 1 26.2897 6.12022 28.1007 
22 1 3.58165 12.5584 3.9103 
434 1 0.0163478 12.7366 1.70564 
105 1 2.16693 15.9712 2.20604 
92 1 5.79426 15.3685 1.93422 
49 1 5.41108 11.8806 0.174213 
134 1 9.22513 11.7641 1.79029 
35 1 9.46988 15.6066 -0.09239 
133 1 8.02885 13.4225 4.91016 
313 1 12.8723 10.5819 2.54954 
195 1 12.3852 14.6313 2.88862 
104 1 15.6027 12.7763 1.28975 
393 1 15.7069 14.1773 4.9206 
262 1 15.007 16.8756 1.78697 
443 1 18.9423 14.7144 2.7926 
245 1 22.6045 12.4021 2.68815 
480 1 21.5241 14.9609 -0.329543 
357 1 26.0474 11.3337 3.52649 
4 1 25.4433 14.0035 0.710573 
410 1 28.1156 16.3881 -0.804533 
120 1 27.4392 16.673 3.27996 
309 1 4.32641 21.2972 1.94338 
280 1 0.394863 19.4649 1.49952 
260 1 1.45917 22.6285 4.95919 
8 1 5.78315 19.2456 5.51196 
372 1 8.76973 17.6228 3.10534 
188 1 6.90061 18.5789 -0.260925 
276 1 8.04107 21.3195 2.87533 
100 1 11.3523 18.6692 0.39678 
359 1 12.307 21.4704 2.37304 
159 1 13.8711 18.3227 5.01002 
224 1 16.2796 21.5282 3.07083 
348 1 14.9354 20.094 -0.0870688 
58 1 18.2785 18.2726 0.791615 
218 1 23.309 16.7665 2.77569 
270 1 22.3628 20.1147 0.623457 
315 1 18.2438 22.033 -0.380377 
496 1 20.3002 20.2616 4.66971 
419 1 17.5784 17.6107 4.71008 
230 1 25.9321 20.0335 2.08495 
296 1 24.0835 22.5259 4.34583 
231 1 2.07675 23.7486 28.4498 
34 1 2.23842 25.7454 2.64442 
317 1 -0.612592 27.9543 1.55845 
253 1 3.9551 28.1424 0.21683 
342 1 7.75566 28.0432 0.38577 
310 1 5.4081 23.3913 5.19312 
269 1 6.17057 24.6528 1.47124 
89 1 10.1807 24.6937 1.68835 
364 1 7.37098 26.6142 4.26465 
3 1 11.5333 28.393 1.37623 
176 1 15.2437 27.3667 1.81018 
352 1 14.3196 23.9237 0.314416 
24 1 13.6189 25.2988 4.41197 
255 1 20.7601 23.362 2.56826 
492 1 19.1195 27.1673 3.08132 
373 1 22.5593 26.703 0.885343 
127 1 17.87 26.0034 28.5454 
413 1 22.5914 26.4401 5.2483 
263 1 25.6974 25.9139 2.95802 
350 1 24.4239 23.1831 0.154539 
201 1 28.1883 23.1338 2.25004 
339 1 2.84629 2.00816 6.9887 
489 1 0.0428222 4.73635 9.56637 
184 1 4.04611 1.77784 10.4095 
349 1 1.53555 28.4258 9.29658 
448 1 5.9068 3.56507 5.52326 
25 1 6.45607 0.403443 7.72843 
109 1 10.2783 1.80318 7.90208 
233 1 7.47841 3.83476 9.30749 
16 1 12.897 -0.0509156 5.04495 
462 1 13.855 1.83156 8.80778 
487 1 13.5008 4.50872 6.17358 
354 1 11.9352 -0.694951 11.071 
374 1 17.3155 3.06654 8.53163 
69 1 20.0377 -0.0184851 6.90461 
116 1 21.2118 2.91201 8.93221 
26 1 19.6221 5.33898 6.53705 
307 1 23.7054 1.95601 5.65016 
215 1 28.1619 1.22015 7.51864 
306 1 25.1649 1.21124 9.78468 
302 1 25.9566 4.47489 7.8694 
252 1 0.225394 5.20348 5.24118 
324 1 3.91663 5.04405 8.56868 
406 1 3.46906 8.91201 5.59946 
187 1 0.940357 8.61304 8.20579 
59 1 4.71452 8.89305 9.32773 
103 1 7.06105 7.37772 6.45173 
70 1 10.7336 6.03667 8.66301 
433 1 9.35937 9.7704 8.4658 
183 1 14.3441 5.79333 9.92274 
91 1 13.0177 8.72161 7.05452 
429 1 16.474 9.36745 11.0096 
229 1 16.8132 7.59067 7.6157 
343 1 19.98 9.54715 8.23143 
23 1 22.8316 6.46481 9.06859 
119 1 23.2873 9.79183 5.68223 
125 1 27.507 7.99025 10.8181 
298 1 26.4149 8.03598 6.212 
128 1 24.6852 9.96424 9.32078 
117 1 0.436854 14.8169 5.6093 
404 1 2.33829 12.2792 7.64019 
463 1 4.09118 15.868 6.12525 
172 1 1.13667 15.9375 9.76096 
194 1 4.86576 14.1225 9.77237 
217 1 1.66425 10.5769 11.3434 
469 1 6.02645 11.4239 7.05494 
284 1 8.87933 13.4668 8.61923 
289 1 10.8071 16.1157 6.582 
494 1 11.9135 12.3797 5.67076 
208 1 15.9356 11.4532 7.71644 
71 1 14.311 15.7534 8.11151 
84 1 12.5969 12.0171 9.35397 
209 1 11.5256 15.2686 10.6008 
438 1 19.1694 12.3691 5.70156 
154 1 18.2616 15.1339 8.49606 
484 1 22.129 12.9002 8.24902 
165 1 20.9314 16.1019 5.83738 
28 1 19.0127 12.1226 10.6203 
175 1 27.9737 11.4984 6.80354 
295 1 27.379 13.4403 9.96727 
288 1 25.1933 14.7729 5.42546 
403 1 23.7165 16.5007 8.75449 
456 1 27.4495 17.2456 7.53269 
460 1 1.91042 18.8106 5.5008 
320 1 0.4435 19.8755 9.72472 
44 1 3.94794 18.7634 8.91079 
80 1 3.47467 22.3241 8.31581 
1 1 7.50842 16.8389 8.23989 
180 1 7.74552 21.6392 8.17221 
149 1 10.1415 19.5988 5.68616 
182 1 10.3113 19.0217 9.55709 
500 1 13.8051 19.5624 9.033 
64 1 13.5932 22.0084 5.68158 
475 1 17.3345 20.4412 7.07113 
499 1 17.3434 18.6359 10.5447 
399 1 20.9788 19.3283 9.01687 
477 1 18.8752 22.4437 10.4244 
451 1 23.594 18.9268 5.72209 
439 1 27.6553 20.3678 5.45546 
173 1 25.2515 20.0659 9.18036 
369 1 3.25185 26.2888 6.51881 
51 1 4.95008 27.0626 10.7327 
261 1 1.89344 24.8474 10.8253 
67 1 -0.230811 23.1618 8.17898 
363 1 9.91841 23.3332 5.41559 
274 1 7.01583 25.3564 7.80491 
147 1 10.079 27.2471 7.55753 
170 1 9.00793 25.6138 11.1956 
77 1 11.4358 22.8795 8.94228 
386 1 16.5805 27.4938 6.27119 
340 1 13.4678 26.1263 8.73734 
57 1 15.8823 23.5883 8.1773 
338 1 21.5516 23.2262 7.66265 
213 1 18.3968 23.9174 5.42463 
322 1 18.8964 26.0532 8.96144 
212 1 -0.343602 26.1658 5.44285 
387 1 25.8042 28.2233 6.46474 
258 1 22.5855 26.6747 9.06915 
140 1 27.9043 26.3829 9.47831 
388 1 25.4404 24.4162 7.24473 
445 1 25.5505 23.3451 10.9206 
171 1 1.71605 3.19357 13.146 
488 1 1.77004 0.965865 16.652 
204 1 5.05689 0.653539 14.0884 
38 1 5.4213 3.29 16.8626 
415 1 7.98609 -0.0615873 11.1587 
55 1 5.95788 4.34146 12.7164 
189 1 8.64848 2.9521 14.8854 
336 1 11.2806 3.27098 11.674 
490 1 15.179 2.94404 12.2086 
441 1 13.0726 0.678412 14.0899 
118 1 13.8634 3.57969 16.3508 
478 1 16.752 1.2598 15.5543 
304 1 18.775 1.94354 12.2643 
12 1 18.0653 5.07857 13.7955 
332 1 20.8561 2.01058 15.6221 
216 1 21.6749 4.66538 12.3407 
464 1 22.5804 0.257526 12.345 
54 1 28.4387 1.37881 11.2535 
292 1 25.5285 5.11358 11.7716 
27 1 25.0201 2.04179 14.2563 
454 1 27.6048 -0.4159 16.1461 
97 1 28.1586 3.28602 17.019 
361 1 2.61504 6.69232 11.8395 
74 1 3.29374 6.12727 15.7624 
115 1 1.06192 9.15504 15.6189 
459 1 4.89001 9.04232 13.5048 
466 1 7.95418 7.46509 11.6738 
382 1 7.04259 6.52062 16.0381 
411 1 9.31616 9.5111 14.5469 
14 1 10.6625 5.93205 14.2519 
331 1 6.74267 10.8008 16.9517 
66 1 11.586 8.58607 11.5071 
407 1 14.6294 6.80246 13.5759 
164 1 14.1358 10.7477 13.8395 
234 1 16.788 9.1322 16.1325 
244 1 18.858 6.3143 10.4521 
360 1 19.3751 8.4782 13.7126 
114 1 22.3105 9.6352 11.9431 
329 1 20.4292 6.12872 16.7843 
365 1 22.4735 10.0528 16.3756 
375 1 -0.554678 6.12569 13.8382 
200 1 24.1801 7.61705 14.5065 
29 1 26.6253 11.1445 12.7681 
401 1 4.07028 12.7617 13.3707 
151 1 -0.224641 15.0283 17.2965 
303 1 0.713802 14.1218 13.374 
379 1 3.89686 15.7511 16.3346 
193 1 3.97981 16.6941 12.6935 
246 1 7.01238 11.2308 11.1575 
157 1 7.73194 15.2041 12.1174 
286 1 10.5681 12.6238 12.8177 
130 1 7.76599 14.2319 16.2428 
427 1 15.414 13.4699 11.6513 
95 1 13.5753 14.7408 14.9177 
98 1 17.6717 12.1126 14.2384 
238 1 17.2838 16.1609 13.7509 
358 1 20.5617 15.9589 11.2102 
76 1 21.1025 13.3383 14.1296 
457 1 27.2748 11.7444 16.4116 
142 1 24.1084 14.0322 11.6285 
166 1 25.9862 15.8867 14.853 
325 1 23.6836 13.7047 17.4961 
333 1 0.382075 18.3209 14.3964 
400 1 4.02157 20.0487 15.9559 
430 1 3.02392 20.2096 12.3274 
214 1 0.0608476 21.4581 16.2868 
139 1 -0.53216 22.5419 12.6605 
405 1 6.65641 19.1704 11.7798 
196 1 9.60697 21.9226 12.4074 
60 1 10.3898 17.9187 13.3378 
191 1 7.09351 17.8236 15.286 
486 1 6.71436 22.3541 14.9623 
476 1 10.0061 20.402 16.1894 
279 1 13.8504 21.8474 12.2666 
37 1 14.0027 17.5393 12.1752 
316 1 13.3033 18.559 15.8592 
131 1 16.4393 19.9216 14.3256 
186 1 19.9458 19.3231 13.5271 
491 1 22.4619 21.4496 11.8168 
335 1 22.7875 21.5539 15.4424 
319 1 23.3482 17.9837 12.5287 
156 1 27.0778 17.2813 11.2807 
435 1 26.0404 20.1055 14.1985 
82 1 1.33372 27.9671 13.1192 
141 1 3.35634 24.0322 14.1586 
150 1 -0.0245685 25.3566 15.7989 
237 1 3.4788 27.1164 16.5071 
408 1 6.44778 26.0193 14.2643 
9 1 5.69952 23.0947 11.1477 
299 1 9.89736 24.4802 15.9424 
235 1 9.70417 28.2514 14.1813 
483 1 16.2039 -0.629305 10.6468 
312 1 16.0443 24.9587 11.5182 
199 1 12.4071 25.3867 12.9105 
377 1 15.6996 26.9496 14.6631 
356 1 14.5018 23.6336 15.6724 
169 1 19.7041 27.4206 12.4162 
181 1 19.2435 23.224 13.9903 
420 1 19.2103 27.3677 16.1416 
301 1 22.5671 25.1661 12.8577 
482 1 23.6558 27.9593 15.5399 
198 1 25.6951 24.6372 14.9706 
42 1 26.1213 28.0941 12.3569 
225 1 0.569314 1.97964 20.1694 
281 1 3.87937 4.3495 20.5836 
479 1 4.47948 0.445682 19.2514 
135 1 8.14917 2.14622 19.9388 
468 1 7.27201 -0.328757 16.998 
394 1 10.134 4.61135 18.2065 
345 1 11.0714 0.947732 17.3153 
53 1 11.8011 2.55888 20.9138 
124 1 14.9268 0.967442 19.1159 
473 1 20.7094 4.3406 20.0541 
5 1 18.5765 0.769866 18.9111 
389 1 17.0048 2.62318 22.4113 
112 1 17.2576 4.25215 17.9454 
46 1 20.5363 1.09538 22.7424 
384 1 22.5331 -0.374313 19.2893 
370 1 23.7399 3.26285 17.7992 
73 1 26.2775 0.777866 19.6302 
344 1 26.901 4.90943 19.8665 
351 1 23.7086 3.14955 21.716 
398 1 1.03446 5.93839 18.6171 
498 1 4.54367 7.97349 22.5265 
327 1 0.990762 9.44589 20.2709 
52 1 4.87216 7.9194 18.7597 
272 1 7.22175 5.66015 20.7352 
210 1 7.94097 9.64707 21.4048 
17 1 9.66438 8.65006 18.4203 
122 1 10.7168 6.82766 22.0381 
121 1 13.3117 7.72536 17.0993 
465 1 13.9974 5.66573 20.2031 
242 1 12.3204 10.1441 20.2092 
93 1 16.0365 9.23287 19.9117 
323 1 19.9619 8.53665 19.8518 
390 1 17.6762 6.39132 22.5843 
493 1 19.2831 11.4611 17.7157 
90 1 22.1115 7.5991 22.4859 
378 1 27.1577 7.97696 17.3486 
337 1 23.7885 7.03369 18.3939 
367 1 26.4901 8.32685 21.5968 
33 1 23.6124 10.4814 20.5551 
222 1 4.58793 11.527 21.9687 
243 1 2.72985 11.6962 17.9067 
293 1 2.42949 15.4715 20.0128 
148 1 11.1163 12.2789 16.9049 
75 1 5.96226 14.2399 19.6331 
72 1 9.73149 12.9607 20.2123 
347 1 12.6449 16.0785 18.6735 
417 1 14.7053 11.9114 17.7655 
223 1 14.6338 12.3764 22.454 
146 1 15.587 16.883 21.3786 
402 1 19.9768 15.2564 17.0131 
444 1 17.6775 13.9419 20.6971 
36 1 21.2849 13.5897 21.8757 
470 1 28.0802 12.8406 20.1772 
86 1 24.9516 14.7477 21.1032 
283 1 28.2554 16.8543 20.6944 
50 1 1.34317 18.5476 18.1714 
381 1 3.48771 21.2785 21.317 
314 1 5.33259 18.0999 19.6497 
481 1 9.21797 17.4054 18.3392 
106 1 6.43929 21.4626 18.4802 
206 1 8.03184 20.1361 21.4984 
155 1 15.3838 19.7905 19.1403 
163 1 11.4348 20.2194 20.017 
346 1 16.2694 15.8709 17.399 
168 1 11.3624 22.3947 23.3994 
264 1 21.3396 17.137 19.9619 
472 1 19.0757 19.3055 17.3155 
83 1 18.8278 19.9261 21.1263 
371 1 21.7811 21.2077 18.9651 
418 1 -0.20433 20.6853 21.9855 
271 1 23.2816 17.9415 16.7171 
47 1 27.0409 18.5231 17.4042 
266 1 24.9109 18.8357 20.4163 
275 1 25.7733 22.0878 17.6368 
321 1 25.2519 22.2594 22.2081 
308 1 2.94055 23.6152 18.3702 
248 1 -0.434745 23.3096 19.3848 
85 1 0.886312 27.3372 19.2488 
455 1 1.68049 24.4539 22.5178 
31 1 6.30074 24.0639 21.9517 
383 1 9.74427 23.7272 20.2179 
446 1 6.63912 25.3693 17.9382 
113 1 7.67517 27.5872 20.9942 
250 1 12.5866 26.7566 16.9547 
197 1 11.4049 27.607 20.5254 
467 1 16.3763 26.2766 18.7875 
416 1 13.4198 23.9636 19.9652 
471 1 17.6157 27.9228 22.0018 
205 1 18.1055 22.8669 17.5793 
177 1 17.2263 23.4474 21.0955 
153 1 20.0129 26.0962 19.8692 
78 1 22.0653 24.9388 17.0487 
297 1 26.3509 26.3235 18.3321 
497 1 27.3601 25.7596 22.1994 
251 1 23.7232 25.6527 21.7582 
6 1 -0.382851 -0.458248 23.0145 
391 1 1.84918 2.89721 23.6329 
185 1 3.45311 1.19528 26.6685 
220 1 -0.460974 1.32661 26.5302 
107 1 1.0366 4.86546 26.5309 
265 1 4.81157 4.84105 25.142 
144 1 5.75069 2.0646 22.8567 
282 1 8.3758 4.67762 24.1484 
395 1 9.66114 0.214242 23.4872 
99 1 7.32618 1.90923 26.7682 
111 1 14.1028 0.859819 28.2804 
396 1 11.3533 2.72564 26.1151 
81 1 13.8188 0.290911 23.4872 
294 1 14.0918 4.71123 23.9322 
56 1 16.8693 3.46386 26.019 
45 1 19.6451 3.9099 28.5644 
442 1 17.3744 -0.197648 26.0549 
227 1 20.2353 4.41409 24.5887 
61 1 22.0494 0.874909 28.3605 
353 1 24.9418 2.67149 26.2537 
20 1 27.6354 3.21229 23.2336 
10 1 25.2799 -0.238139 23.604 
203 1 4.80193 5.5484 -0.446584 
15 1 0.379084 6.21766 22.7706 
68 1 3.84834 8.37842 26.2995 
426 1 -0.35401 10.3656 23.4657 
18 1 8.71815 5.33913 27.9352 
273 1 7.79133 8.96237 25.1905 
32 1 10.8813 10.507 23.8132 
236 1 11.087 7.0058 25.6299 
290 1 15.9673 7.10052 26.4825 
432 1 14.3501 8.61284 23.083 
366 1 13.8946 10.7774 26.4283 
79 1 18.2396 10.6043 22.8349 
397 1 19.6229 8.40705 25.4004 
268 1 21.1828 10.7732 28.2308 
424 1 17.6551 11.1485 26.8144 
461 1 22.1797 10.7396 24.311 
129 1 -0.101477 8.14821 26.6552 
437 1 22.5258 6.55308 27.5033 
452 1 25.1543 5.7271 24.1858 
300 1 25.2066 9.29358 26.3886 
160 1 1.82859 11.058 28.1622 
137 1 2.1477 15.0528 27.264 
368 1 5.10847 15.4643 23.1189 
425 1 1.26451 13.8941 23.846 
211 1 4.6789 12.0235 25.8339 
453 1 9.16405 16.2094 22.5732 
190 1 9.17413 11.8468 27.1776 
362 1 6.5285 15.3711 26.7913 
450 1 7.77424 12.6929 23.7877 
409 1 12.3353 12.9204 -0.534334 
11 1 10.9923 14.4675 25.4131 
257 1 15.7377 14.6012 25.1558 
440 1 13.4995 16.6948 27.6343 
311 1 17.814 14.8593 28.3313 
2 1 19.8974 13.9302 25.3562 
178 1 27.6052 12.2219 26.6156 
136 1 25.6422 11.8691 23.3844 
277 1 23.7137 13.3765 26.4342 