ITEM: TIMESTEP
0
ITEM: NUMBER OF ATOMS
500
ITEM: BOX BOUNDS pp pp pp
-1.4718955016638464e+00 2.6471895501663731e+01
-1.4718955016638464e+00 2.6471895501663731e+01
-1.4718955016638464e+00 2.6471895501663731e+01
ITEM: ATOMS id type x y z 
3 1 1.33701 -1.46671 1.3296 
8 1 4.12678 1.34366 1.31818 
7 1 6.92365 -1.46741 1.31609 
6 1 6.92224 1.34311 -1.46655 
5 1 4.11723 -1.46647 -1.46785 
12 1 9.71678 1.33795 1.33459 
16 1 15.3155 1.34327 1.32958 
11 1 12.5123 -1.45292 1.32935 
10 1 12.5171 1.33266 -1.45893 
13 1 15.323 -1.4531 -1.46571 
20 1 20.8917 1.32305 1.31842 
15 1 18.1138 -1.4547 1.32174 
4 1 26.4711 1.32361 1.32346 
19 1 23.6943 -1.45353 1.32727 
23 1 1.31571 4.11975 1.30846 
22 1 1.32082 6.91049 -1.46263 
27 1 6.93207 4.14231 1.33012 
28 1 4.13232 6.92234 1.31549 
25 1 4.13191 4.12794 -1.46974 
26 1 6.93177 6.93198 -1.46944 
32 1 9.7237 6.93208 1.32774 
29 1 9.72 4.13084 -1.46575 
31 1 12.5156 4.12507 1.33291 
36 1 15.2855 6.91669 1.31176 
35 1 18.1065 4.13396 1.30254 
40 1 20.894 6.90605 1.32433 
24 1 26.4581 6.90189 1.31942 
39 1 23.6719 4.11423 1.33046 
43 1 1.32918 9.69565 1.31976 
44 1 -1.46715 12.4952 1.34195 
47 1 6.94181 9.71244 1.32416 
45 1 4.13743 9.71633 -1.46666 
51 1 12.4944 9.72668 1.3001 
56 1 15.2909 12.4922 1.33458 
55 1 18.0854 9.6866 1.32658 
60 1 20.8754 12.4689 1.32642 
57 1 20.8857 9.69746 -1.46683 
54 1 18.0739 12.4842 -1.4659 
41 1 26.4572 9.71899 -1.45139 
59 1 23.6741 9.69164 1.33959 
63 1 1.3371 15.296 1.34095 
61 1 -1.4596 15.2957 -1.46455 
42 1 1.32376 12.5148 -1.44817 
48 1 4.14195 12.5017 1.32156 
67 1 6.91671 15.3105 1.30937 
65 1 4.12087 15.3058 -1.46659 
52 1 9.7144 12.5123 1.31598 
71 1 12.5029 15.2918 1.33403 
73 1 15.3094 15.2961 -1.4673 
75 1 18.0926 15.2749 1.33554 
77 1 20.8668 15.2875 -1.4539 
58 1 23.6733 12.502 -1.46266 
79 1 23.681 15.2673 1.33743 
64 1 -1.45359 18.0755 1.33416 
83 1 1.32813 20.8859 1.31715 
81 1 -1.46352 20.884 -1.46234 
68 1 4.11647 18.0984 1.32722 
87 1 6.91501 20.899 1.33001 
72 1 9.70996 18.1142 1.32647 
91 1 12.5024 20.8964 1.32443 
76 1 15.3038 18.0764 1.32952 
70 1 12.515 18.0946 -1.45805 
93 1 15.2937 20.8972 -1.45886 
74 1 18.1002 18.1044 -1.45777 
80 1 20.8948 18.0788 1.34602 
95 1 18.1146 20.893 1.32022 
97 1 20.9179 20.8907 -1.46763 
78 1 23.691 18.0607 -1.43927 
99 1 23.701 20.8904 1.32358 
84 1 -1.45896 23.686 1.32584 
82 1 1.33307 23.6858 -1.46532 
88 1 4.13544 23.6792 1.3205 
92 1 9.70918 23.6891 1.32805 
96 1 15.3055 23.6943 1.30832 
100 1 20.9165 23.6961 1.32076 
94 1 18.1192 23.6849 -1.46641 
102 1 1.34482 1.33864 4.11564 
103 1 1.34185 -1.46777 6.88933 
101 1 -1.44888 -1.46105 4.11363 
104 1 -1.43941 1.34421 6.90328 
105 1 4.12829 -1.46753 4.10303 
106 1 6.91484 1.33804 4.11534 
108 1 4.11859 1.34538 6.90614 
107 1 6.89848 -1.46515 6.91358 
109 1 9.71378 -1.46188 4.13001 
112 1 9.7104 1.33591 6.89972 
110 1 12.5113 1.34879 4.12504 
111 1 12.5198 -1.46864 6.90169 
113 1 15.3096 -1.45783 4.09895 
116 1 15.2959 1.33001 6.90625 
114 1 18.0965 1.33237 4.114 
117 1 20.8903 -1.46831 4.11509 
120 1 20.8686 1.3154 6.90953 
118 1 23.6841 1.32672 4.11879 
119 1 23.6913 -1.45801 6.89721 
121 1 -1.45743 4.11869 4.12106 
122 1 1.34192 6.91086 4.1122 
123 1 1.35484 4.15021 6.91443 
124 1 -1.46235 6.90741 6.92128 
125 1 4.1291 4.14292 4.10613 
126 1 6.92063 6.9262 4.1379 
127 1 6.91261 4.13318 6.92464 
128 1 4.14018 6.92812 6.93884 
129 1 9.71693 4.14457 4.13528 
132 1 9.71161 6.92646 6.93226 
131 1 12.5066 4.14546 6.91351 
133 1 15.3047 4.13291 4.11268 
130 1 12.506 6.93639 4.12107 
136 1 15.2948 6.91475 6.93134 
137 1 20.8733 4.10783 4.11823 
134 1 18.0777 6.90586 4.11145 
135 1 18.0713 4.11493 6.91841 
140 1 20.8609 6.88518 6.92654 
138 1 23.6695 6.89287 4.13979 
139 1 23.6737 4.10456 6.91781 
141 1 -1.46361 9.68033 4.12359 
143 1 1.35118 9.68823 6.91472 
144 1 -1.45734 12.4534 6.90188 
142 1 1.35157 12.4606 4.11219 
145 1 4.14309 9.70206 4.10744 
147 1 6.91159 9.71061 6.94074 
148 1 4.13348 12.4803 6.9171 
149 1 9.70833 9.71282 4.13771 
151 1 12.496 9.70038 6.94334 
150 1 12.4843 12.4847 4.12536 
153 1 15.2802 9.70115 4.1154 
156 1 15.2705 12.4752 6.93081 
157 1 20.8683 9.67844 4.13515 
154 1 18.0836 12.4687 4.12939 
155 1 18.0764 9.68123 6.93255 
160 1 20.8728 12.4761 6.9138 
158 1 23.6763 12.4641 4.12269 
159 1 23.6724 9.68507 6.91797 
161 1 -1.45329 15.2652 4.12117 
163 1 1.33284 15.2533 6.90597 
146 1 6.93264 12.5042 4.12132 
165 1 4.12129 15.2868 4.12156 
167 1 6.89558 15.2819 6.91556 
152 1 9.70141 12.5036 6.93728 
169 1 9.69892 15.3006 4.11802 
171 1 12.4884 15.2883 6.90796 
173 1 15.2901 15.2675 4.13366 
177 1 20.885 15.2665 4.12229 
175 1 18.0797 15.2856 6.91115 
179 1 23.6824 15.2575 6.8973 
162 1 1.33382 18.0892 4.125 
181 1 -1.46348 20.8756 4.1139 
164 1 -1.46727 18.0625 6.89643 
183 1 1.32231 20.8692 6.91423 
166 1 6.91255 18.0908 4.11694 
185 1 4.12868 20.8851 4.11893 
168 1 4.11303 18.0792 6.90949 
187 1 6.90644 20.8798 6.92914 
189 1 9.70983 20.8904 4.13235 
172 1 9.6913 18.072 6.91768 
170 1 12.5025 18.0842 4.11374 
191 1 12.5037 20.8694 6.90873 
193 1 15.3003 20.8788 4.09584 
176 1 15.2836 18.0821 6.90656 
174 1 18.0955 18.0775 4.11487 
197 1 20.9041 20.8895 4.10851 
180 1 20.8861 18.0915 6.89303 
195 1 18.0788 20.8827 6.89737 
178 1 23.6912 18.0704 4.12266 
199 1 23.6938 20.8914 6.89674 
182 1 1.34225 23.6563 4.11061 
184 1 -1.45363 23.6779 6.89334 
186 1 6.91833 23.6859 4.13007 
188 1 4.10982 23.6662 6.90756 
192 1 9.71019 23.681 6.90903 
190 1 12.5145 23.6864 4.11427 
196 1 15.2885 23.6627 6.90227 
115 1 18.0721 26.4587 6.90104 
194 1 18.0956 23.6741 4.09522 
200 1 20.8887 23.6765 6.89316 
198 1 23.6961 23.6896 4.11079 
202 1 1.33789 1.35506 9.70332 
203 1 1.31063 -1.45891 12.4712 
201 1 -1.45242 -1.45136 9.66925 
205 1 4.1031 -1.46307 9.68649 
206 1 6.90436 1.33535 9.69555 
208 1 4.11395 1.32605 12.495 
209 1 9.70494 -1.46885 9.68704 
212 1 9.69669 1.32354 12.4873 
210 1 12.491 1.32878 9.68486 
216 1 15.2625 1.30654 12.4928 
214 1 18.0658 1.29851 9.69801 
220 1 20.8707 1.28954 12.4862 
218 1 23.6785 1.31399 9.69056 
204 1 26.4619 1.32437 12.4923 
219 1 23.6757 -1.47129 12.4673 
222 1 1.32203 6.9257 9.73607 
221 1 -1.46427 4.12164 9.70215 
225 1 4.12829 4.1501 9.73274 
226 1 6.92772 6.92579 9.73305 
229 1 9.70975 4.12016 9.71181 
230 1 12.5 6.91235 9.74105 
233 1 15.2768 4.10454 9.71407 
237 1 20.8609 4.08375 9.70728 
234 1 18.0726 6.88888 9.73551 
240 1 20.8652 6.88703 12.4975 
238 1 23.6613 6.89117 9.70578 
239 1 23.6661 4.09538 12.4915 
242 1 1.32194 12.463 9.71575 
245 1 4.11751 9.7019 9.74141 
246 1 6.90023 12.4941 9.73578 
249 1 9.70804 9.71342 9.73291 
253 1 15.2821 9.69841 9.74318 
257 1 20.8777 9.68276 9.70962 
254 1 18.0727 12.4917 9.70122 
260 1 20.8681 12.4938 12.4851 
241 1 26.4634 9.68356 9.7203 
258 1 23.6731 12.4795 9.7036 
261 1 -1.47019 15.255 9.68699 
265 1 4.10582 15.2681 9.72002 
250 1 12.4799 12.5049 9.73338 
269 1 9.67636 15.2885 9.72228 
273 1 15.2795 15.2981 9.70451 
277 1 20.8719 15.2939 9.68212 
275 1 18.0822 15.3003 12.4867 
279 1 23.656 15.2866 12.4734 
262 1 1.31442 18.0563 9.69331 
283 1 1.29232 20.8602 12.4762 
281 1 -1.47008 20.8719 9.67952 
266 1 6.88656 18.0688 9.71937 
285 1 4.09793 20.8671 9.70751 
287 1 6.90267 20.8794 12.4984 
289 1 9.69644 20.871 9.70018 
270 1 12.4804 18.0724 9.71786 
293 1 15.2734 20.8691 9.71642 
274 1 18.0745 18.0991 9.69739 
297 1 20.8834 20.8907 9.67338 
280 1 20.8803 18.09 12.4634 
295 1 18.0762 20.875 12.4856 
278 1 23.6729 18.0722 9.65931 
264 1 26.4518 18.0489 12.4547 
299 1 23.6783 20.8736 12.4482 
282 1 1.31588 23.68 9.68671 
286 1 6.9024 23.6756 9.69939 
288 1 4.09204 23.6672 12.4742 
207 1 6.90143 26.4589 12.4773 
290 1 12.4898 23.6674 9.69914 
211 1 12.4694 26.4681 12.4869 
292 1 9.69205 23.6706 12.4842 
213 1 15.2727 26.4561 9.70603 
296 1 15.2662 23.6757 12.4935 
217 1 20.875 26.4484 9.68121 
294 1 18.0652 23.661 9.69708 
300 1 20.8833 23.6659 12.4704 
215 1 18.0817 26.4549 12.4818 
298 1 23.6939 23.683 9.67349 
284 1 26.4599 23.69 12.4567 
302 1 1.32183 1.31652 15.293 
306 1 6.90139 1.32222 15.2807 
310 1 12.4826 1.30528 15.2947 
314 1 18.0607 1.29025 15.2801 
318 1 23.6612 1.31115 15.2934 
301 1 26.4547 -1.46629 15.2735 
223 1 1.31399 4.12674 12.5096 
322 1 1.32173 6.90676 15.3111 
227 1 6.92063 4.12889 12.5142 
228 1 4.11881 6.92426 12.5264 
325 1 4.12269 4.12589 15.2962 
326 1 6.91844 6.9288 15.3089 
231 1 12.4921 4.10922 12.5155 
232 1 9.71649 6.91946 12.5209 
329 1 9.7107 4.11967 15.3045 
236 1 15.2828 6.89564 12.5244 
333 1 15.2829 4.10678 15.3051 
330 1 12.5086 6.91368 15.3161 
235 1 18.0584 4.08078 12.5049 
337 1 20.8589 4.09707 15.278 
334 1 18.072 6.903 15.2853 
224 1 26.4471 6.89521 12.5153 
321 1 26.4684 4.10184 15.2999 
338 1 23.661 6.89576 15.2974 
243 1 1.29339 9.69819 12.542 
247 1 6.9113 9.71026 12.5257 
248 1 4.09231 12.4874 12.5384 
345 1 4.1126 9.70966 15.3259 
346 1 6.90031 12.4946 15.3387 
349 1 9.71372 9.71414 15.3212 
251 1 12.5034 9.71674 12.532 
353 1 15.2942 9.70893 15.3101 
255 1 18.0799 9.69947 12.5013 
357 1 20.8646 9.69747 15.2863 
259 1 23.6662 9.69224 12.5059 
244 1 26.4575 12.4895 12.5144 
341 1 26.4544 9.69234 15.3174 
358 1 23.6554 12.4928 15.2862 
263 1 1.30797 15.2777 12.5136 
342 1 1.29794 12.5025 15.3249 
267 1 6.87845 15.2776 12.5339 
365 1 4.09359 15.2897 15.3232 
350 1 12.4932 12.5177 15.3263 
252 1 9.69082 12.5023 12.5332 
369 1 9.6793 15.3044 15.3195 
271 1 12.4786 15.2899 12.5216 
256 1 15.2862 12.5088 12.5125 
373 1 15.2927 15.3052 15.3008 
354 1 18.0795 12.5029 15.2938 
377 1 20.8636 15.3001 15.2832 
361 1 26.4433 15.2951 15.3002 
362 1 1.28311 18.0819 15.2921 
268 1 4.09309 18.0758 12.5109 
366 1 6.88486 18.1002 15.3078 
385 1 4.07942 20.8898 15.276 
291 1 12.4686 20.8737 12.5043 
272 1 9.67905 18.0812 12.5168 
389 1 9.6805 20.8901 15.3068 
370 1 12.4802 18.102 15.3055 
276 1 15.2759 18.079 12.5117 
393 1 15.2759 20.8913 15.2726 
374 1 18.0978 18.1028 15.2801 
397 1 20.8934 20.8874 15.2521 
378 1 23.6584 18.0705 15.257 
381 1 26.4365 20.8596 15.2366 
382 1 1.28453 23.6683 15.2487 
305 1 4.1025 26.4548 15.2616 
386 1 6.89136 23.6719 15.2794 
309 1 9.68085 26.4628 15.2946 
390 1 12.4609 23.6692 15.2804 
313 1 15.2738 26.4526 15.2747 
394 1 18.0901 23.6685 15.259 
317 1 20.885 26.4548 15.2842 
398 1 23.6712 23.6804 15.2574 
402 1 1.33506 1.3192 20.8858 
304 1 -1.46971 1.32142 18.0927 
308 1 4.11555 1.31598 18.0825 
406 1 6.91031 1.31539 20.8897 
312 1 9.69918 1.30498 18.0915 
410 1 12.5325 1.29642 20.8781 
316 1 15.2908 1.30008 18.0794 
320 1 20.8636 1.3222 18.0693 
414 1 18.0906 1.32965 20.8612 
418 1 23.6734 1.32523 20.8488 
323 1 1.33581 4.11486 18.0871 
324 1 -1.46436 6.90594 18.0986 
421 1 -1.4483 4.11788 20.885 
422 1 1.3394 6.91603 20.9054 
327 1 6.90965 4.11506 18.0955 
328 1 4.12813 6.91796 18.1049 
425 1 4.13059 4.11686 20.8951 
426 1 6.9422 6.90931 20.888 
332 1 9.71281 6.90303 18.0942 
429 1 9.72601 4.09045 20.8777 
331 1 12.5118 4.10025 18.0891 
430 1 12.504 6.89503 20.8821 
336 1 15.2924 6.92946 18.0988 
433 1 15.3065 4.11539 20.8728 
335 1 18.0698 4.11615 18.0709 
340 1 20.8615 6.90869 18.078 
437 1 20.8759 4.1278 20.8591 
434 1 18.0838 6.91956 20.8798 
339 1 23.6694 4.11751 18.0796 
438 1 23.6828 6.91111 20.8798 
343 1 1.32131 9.70097 18.103 
441 1 -1.4627 9.70542 20.9001 
442 1 1.33114 12.4913 20.8944 
347 1 6.92742 9.71042 18.1139 
445 1 4.13275 9.70508 20.9047 
348 1 4.11257 12.4947 18.1157 
351 1 12.4838 9.71108 18.1044 
449 1 9.71928 9.71466 20.8898 
453 1 15.2826 9.70862 20.8876 
356 1 15.2933 12.4994 18.0919 
355 1 18.0897 9.69684 18.0928 
457 1 20.8861 9.70557 20.8974 
360 1 20.8697 12.4977 18.0799 
454 1 18.0914 12.4946 20.8698 
359 1 23.6569 9.69628 18.0921 
344 1 26.4462 12.4971 18.0943 
363 1 1.30675 15.2995 18.1091 
367 1 6.89407 15.311 18.1048 
446 1 6.92293 12.5241 20.9031 
465 1 4.11083 15.2985 20.8964 
450 1 12.4981 12.5369 20.8774 
352 1 9.70456 12.5319 18.1128 
469 1 9.71428 15.3447 20.8892 
371 1 12.5023 15.3367 18.0902 
473 1 15.312 15.3095 20.8678 
375 1 18.0823 15.3082 18.0804 
477 1 20.8712 15.2972 20.8779 
458 1 23.665 12.5062 20.8854 
379 1 23.6567 15.3026 18.0915 
461 1 26.4618 15.3022 20.8749 
383 1 1.29376 20.8895 18.0617 
462 1 1.30692 18.1047 20.8801 
368 1 4.09269 18.103 18.0842 
387 1 6.8754 20.9002 18.0859 
466 1 6.89931 18.1054 20.8891 
485 1 4.09591 20.8962 20.8758 
372 1 9.6936 18.1233 18.0992 
489 1 9.70603 20.8966 20.8835 
376 1 15.3191 18.1246 18.0808 
391 1 12.5158 20.9054 18.0956 
470 1 12.5354 18.1286 20.8792 
493 1 15.337 20.907 20.8896 
380 1 20.8924 18.1046 18.0774 
395 1 18.1099 20.8986 18.0681 
474 1 18.1076 18.0974 20.8864 
497 1 20.8877 20.8811 20.9063 
364 1 26.4481 18.098 18.0794 
399 1 23.6652 20.8831 18.0665 
478 1 23.672 18.097 20.8965 
481 1 26.4641 20.8843 20.8833 
303 1 1.308 26.4629 18.0581 
482 1 1.30452 23.6743 20.8623 
401 1 -1.4714 26.4523 20.8519 
388 1 4.08382 23.6787 18.0625 
307 1 6.89284 26.4666 18.0789 
405 1 4.10034 26.4689 20.8797 
486 1 6.88988 23.694 20.8769 
392 1 9.69434 23.6799 18.0931 
409 1 9.71964 26.47 20.8855 
311 1 12.5036 26.4487 18.0841 
413 1 15.3331 26.448 20.8738 
396 1 15.3062 23.6704 18.0648 
490 1 12.5303 23.6761 20.8927 
315 1 18.0919 26.4527 18.0662 
400 1 20.8853 23.6619 18.0855 
494 1 18.1153 23.6757 20.8932 
417 1 20.8851 26.4676 20.8636 
319 1 23.6765 26.4498 18.0867 
384 1 26.459 23.6485 18.0432 
498 1 23.6838 23.6522 20.8849 
2 1 1.31755 1.31244 26.4699 
404 1 -1.46973 1.30815 23.6499 
1 1 -1.4708 -1.46451 26.469 
408 1 4.12358 1.31866 23.6886 
407 1 6.91634 -1.46251 23.6845 
9 1 9.72323 -1.44937 26.4699 
412 1 9.72455 1.33015 23.6839 
416 1 15.3211 1.31441 23.6713 
411 1 12.53 -1.47041 23.6768 
14 1 18.1143 1.33717 26.459 
420 1 20.885 1.33388 23.6406 
17 1 20.9022 -1.45294 26.4595 
18 1 23.6777 1.32328 26.4522 
419 1 23.6917 -1.46627 23.6413 
423 1 1.33447 4.11304 23.6907 
424 1 -1.4672 6.91453 23.6945 
427 1 6.92681 4.12553 23.6811 
428 1 4.13958 6.92014 23.6895 
30 1 12.497 6.91206 26.4626 
432 1 9.72358 6.90215 23.6681 
431 1 12.5213 4.096 23.6744 
33 1 15.3037 4.11542 26.4677 
436 1 15.2896 6.90787 23.6747 
435 1 18.0949 4.12229 23.6607 
37 1 20.8962 4.12651 26.4545 
34 1 18.085 6.915 26.4659 
440 1 20.8872 6.91381 23.6718 
21 1 26.458 4.09869 26.4604 
38 1 23.6808 6.90966 26.4635 
439 1 23.6776 4.10361 23.6458 
443 1 1.32895 9.71799 23.714 
447 1 6.93457 9.71117 23.6701 
49 1 9.7123 9.72345 26.4462 
451 1 12.4988 9.71026 23.6659 
53 1 15.2824 9.71432 26.4651 
455 1 18.0771 9.70338 23.6766 
459 1 23.6746 9.7206 23.6816 
444 1 -1.46712 12.5096 23.6821 
463 1 1.31958 15.2968 23.6691 
46 1 6.93253 12.5128 26.4669 
448 1 4.13337 12.5068 23.6964 
467 1 6.92446 15.3232 23.6932 
452 1 9.71644 12.5403 23.6609 
69 1 9.72335 15.3165 26.4701 
50 1 12.5051 12.5284 26.4486 
471 1 12.5264 15.3292 23.6667 
456 1 15.2978 12.5123 23.6629 
460 1 20.8614 12.505 23.6896 
475 1 18.0856 15.295 23.6789 
479 1 23.6765 15.2876 23.6805 
62 1 1.32535 18.0924 26.4649 
464 1 -1.46977 18.0797 23.6792 
483 1 1.31925 20.8907 23.6816 
85 1 4.12683 20.8947 26.4709 
66 1 6.92324 18.1194 26.4708 
468 1 4.11142 18.1031 23.679 
487 1 6.91207 20.9 23.6614 
89 1 9.71906 20.8999 26.467 
472 1 9.72657 18.1155 23.681 
491 1 12.5169 20.9072 23.6815 
476 1 15.3151 18.1134 23.6879 
480 1 20.8943 18.0754 23.701 
495 1 18.1118 20.8907 23.6997 
499 1 23.6969 20.8696 23.7031 
403 1 1.31464 26.465 23.6654 
484 1 -1.45863 23.6773 23.6859 
86 1 6.92748 23.6799 26.4602 
488 1 4.10488 23.683 23.676 
90 1 12.4989 23.7008 26.4699 
492 1 9.70751 23.6926 23.6661 
496 1 15.324 23.6884 23.6988 
415 1 18.1188 26.4703 23.6718 
500 1 20.9073 23.6834 23.6772 
98 1 23.6941 23.7065 26.4631 
ITEM: TIMESTEP
5000
ITEM: NUMBER OF ATOMS
500
ITEM: BOX BOUNDS pp pp pp
-1.4718955016638464e+00 2.6471895501663731e+01
-1.4718955016638464e+00 2.6471895501663731e+01
-1.4718955016638464e+00 2.6471895501663731e+01
ITEM: ATOMS id type x y z 
3 1 1.26552 -1.546 1.34419 
8 1 4.04294 1.24623 1.34824 
7 1 6.8416 -1.5122 1.36289 
6 1 6.83376 1.27238 -1.44485 
5 1 4.07866 -1.54138 -1.46321 
12 1 9.64104 1.2648 1.33893 
16 1 15.2649 1.32895 1.2571 
11 1 12.478 -1.48644 1.29587 
10 1 12.405 1.30393 -1.49307 
13 1 15.248 -1.47874 -1.50971 
20 1 20.856 1.33254 1.27132 
15 1 18.0666 -1.47536 1.23116 
4 1 26.4269 1.24678 1.34262 
19 1 23.6325 -1.50998 1.31492 
23 1 1.27094 4.05119 1.36288 
22 1 1.30519 6.90227 -1.37738 
27 1 6.84454 4.0417 1.38137 
28 1 4.07761 6.87057 1.40368 
25 1 4.04551 4.05732 -1.4118 
26 1 6.82569 6.85611 -1.4005 
32 1 9.62824 6.87012 1.35467 
29 1 9.60561 4.06281 -1.43787 
31 1 12.4381 4.09347 1.29673 
36 1 15.2387 6.91408 1.27531 
35 1 18.0654 4.12546 1.25155 
40 1 20.8995 6.93906 1.27518 
24 1 26.4637 6.90466 1.37854 
39 1 23.6679 4.10026 1.29862 
43 1 1.32947 9.73447 1.39945 
44 1 -1.43722 12.5816 1.36947 
47 1 6.85719 9.68493 1.40369 
45 1 4.10046 9.70321 -1.38947 
51 1 12.4101 9.68188 1.32084 
56 1 15.2133 12.4808 1.30739 
55 1 18.0727 9.73687 1.27327 
60 1 20.8668 12.5577 1.32017 
57 1 20.8937 9.77476 -1.45346 
54 1 18.0088 12.513 -1.48241 
41 1 26.5118 9.75961 -1.38805 
59 1 23.6984 9.76618 1.34244 
63 1 1.3544 15.3781 1.38885 
61 1 -1.4188 15.3166 -1.42178 
42 1 1.37182 12.5475 -1.41012 
48 1 4.12592 12.5396 1.38618 
67 1 6.88423 15.3165 1.33896 
65 1 4.14059 15.3178 -1.45975 
52 1 9.62242 12.4961 1.35278 
71 1 12.4007 15.2571 1.29834 
73 1 15.1912 15.2644 -1.49441 
75 1 18.0383 15.2918 1.31844 
77 1 20.854 15.2844 -1.46646 
58 1 23.6999 12.5648 -1.42926 
79 1 23.6835 15.3396 1.35154 
64 1 -1.45217 18.1192 1.35741 
83 1 1.32455 20.8898 1.37655 
81 1 -1.44854 20.8416 -1.4687 
68 1 4.15058 18.1419 1.37121 
87 1 6.92323 20.8914 1.33846 
72 1 9.66921 18.0765 1.31118 
91 1 12.4464 20.8689 1.29314 
76 1 15.2201 18.0603 1.31995 
70 1 12.4355 18.0578 -1.50443 
93 1 15.236 20.8344 -1.49796 
74 1 18.0353 18.0293 -1.47042 
80 1 20.8648 18.0739 1.30492 
95 1 18.0522 20.8488 1.28531 
97 1 20.8734 20.8063 -1.47879 
78 1 23.6932 18.0567 -1.46619 
99 1 23.6642 20.8492 1.31271 
84 1 -1.50025 23.6378 1.34888 
82 1 1.30781 23.6282 -1.47461 
88 1 4.08431 23.6387 1.37425 
92 1 9.67736 23.6745 1.32356 
96 1 15.2559 23.6458 1.27362 
100 1 20.8513 23.6525 1.27071 
94 1 18.0722 23.6325 -1.50695 
102 1 1.26901 1.24936 4.14506 
103 1 1.25627 -1.49569 6.96818 
101 1 -1.54029 -1.49312 4.14615 
104 1 -1.54018 1.30513 6.9221 
105 1 4.04985 -1.50865 4.18719 
106 1 6.84911 1.25697 4.15488 
108 1 4.065 1.29901 6.95467 
107 1 6.88899 -1.47257 6.9594 
109 1 9.71017 -1.48447 4.14513 
112 1 9.73652 1.30337 6.89204 
110 1 12.5194 1.31343 4.07311 
111 1 12.5923 -1.45021 6.9212 
113 1 15.3291 -1.48326 4.06261 
116 1 15.3608 1.31776 6.87837 
114 1 18.0716 1.33933 4.04857 
117 1 20.8291 -1.46927 4.06754 
120 1 20.8482 1.33003 6.86513 
118 1 23.6243 1.31246 4.10479 
119 1 23.5955 -1.44957 6.9217 
121 1 -1.50957 4.06052 4.10616 
122 1 1.29923 6.88052 4.14804 
123 1 1.27101 4.06439 6.90481 
124 1 -1.4907 6.90334 6.85553 
125 1 4.06388 4.05169 4.14653 
126 1 6.86716 6.8562 4.16404 
127 1 6.89823 4.07782 6.91356 
128 1 4.08963 6.88342 6.91567 
129 1 9.68181 4.06887 4.12076 
132 1 9.73307 6.87728 6.89717 
131 1 12.5602 4.10195 6.8534 
133 1 15.2991 4.12723 4.0374 
130 1 12.4795 6.89613 4.1014 
136 1 15.3682 6.89383 6.83554 
137 1 20.8785 4.13563 4.04147 
134 1 18.1139 6.93378 4.02371 
135 1 18.1293 4.12584 6.8356 
140 1 20.8753 6.93738 6.85235 
138 1 23.6554 6.92084 4.08368 
139 1 23.6351 4.12392 6.88394 
141 1 -1.476 9.74655 4.12268 
143 1 1.30368 9.72101 6.89002 
144 1 -1.48711 12.5638 6.87896 
142 1 1.32875 12.5653 4.14736 
145 1 4.10076 9.69829 4.16124 
147 1 6.9009 9.67655 6.91971 
148 1 4.11106 12.5174 6.92441 
149 1 9.6703 9.67056 4.13813 
151 1 12.5531 9.67961 6.8901 
150 1 12.4637 12.4605 4.10165 
153 1 15.2894 9.69048 4.06556 
156 1 15.333 12.5174 6.86119 
157 1 20.8838 9.74336 4.05934 
154 1 18.0838 12.5278 4.07355 
155 1 18.1349 9.73845 6.83885 
160 1 20.8963 12.5623 6.85067 
158 1 23.6789 12.5716 4.11186 
159 1 23.6658 9.74361 6.8382 
161 1 -1.46561 15.3827 4.16114 
163 1 1.33139 15.3576 6.93777 
146 1 6.89343 12.5134 4.16207 
165 1 4.156 15.3548 4.17854 
167 1 6.96572 15.3046 6.95709 
152 1 9.73097 12.4657 6.9159 
169 1 9.69682 15.2838 4.12391 
171 1 12.5198 15.2946 6.88846 
173 1 15.2541 15.2828 4.08457 
177 1 20.8851 15.3599 4.10752 
175 1 18.0986 15.3595 6.87207 
179 1 23.6634 15.3763 6.92049 
162 1 1.34418 18.1609 4.20117 
181 1 -1.49759 20.9072 4.17059 
164 1 -1.50255 18.168 6.96 
183 1 1.29698 20.9299 7.00184 
166 1 6.96441 18.1189 4.17496 
185 1 4.14296 20.905 4.2002 
168 1 4.17294 18.1474 6.98106 
187 1 6.97027 20.9295 6.97996 
189 1 9.72485 20.9143 4.14836 
172 1 9.76452 18.1222 6.96118 
170 1 12.4701 18.0916 4.10966 
191 1 12.569 20.9151 6.93841 
193 1 15.2914 20.8898 4.1034 
176 1 15.3137 18.1049 6.89529 
174 1 18.0789 18.1084 4.08118 
197 1 20.8682 20.9002 4.07304 
180 1 20.8864 18.1548 6.90016 
195 1 18.0926 20.907 6.89796 
178 1 23.6731 18.1357 4.13162 
199 1 23.6236 20.9277 6.94345 
182 1 1.26404 23.6606 4.18898 
184 1 -1.55055 23.7107 6.98013 
186 1 6.90949 23.688 4.17654 
188 1 4.09363 23.6969 6.98183 
192 1 9.78797 23.712 6.94902 
190 1 12.5273 23.6843 4.11539 
196 1 15.3532 23.6961 6.93878 
115 1 18.0948 26.486 6.90932 
194 1 18.0839 23.6724 4.07099 
200 1 20.8386 23.7091 6.91141 
198 1 23.6347 23.6782 4.11866 
202 1 1.27389 1.31884 9.72585 
203 1 1.2673 -1.44405 12.5358 
201 1 -1.55438 -1.4525 9.7508 
205 1 4.08788 -1.44765 9.75249 
206 1 6.92886 1.32122 9.70339 
208 1 4.12414 1.33552 12.4963 
209 1 9.79256 -1.4339 9.71312 
212 1 9.77857 1.35149 12.479 
210 1 12.5984 1.34968 9.69857 
216 1 15.3767 1.37278 12.5485 
214 1 18.1278 1.3499 9.71749 
220 1 20.8577 1.35667 12.5715 
218 1 23.6101 1.33895 9.71348 
204 1 26.4174 1.35651 12.5157 
219 1 23.6197 -1.41374 12.5551 
222 1 1.29836 6.8874 9.66191 
221 1 -1.53148 4.10048 9.67968 
225 1 4.1059 4.09583 9.69751 
226 1 6.9379 6.88651 9.67625 
229 1 9.76753 4.10404 9.64328 
230 1 12.5926 6.8758 9.6475 
233 1 15.3861 4.1122 9.65518 
237 1 20.8813 4.13148 9.68294 
234 1 18.149 6.93087 9.63673 
240 1 20.9001 6.9509 12.463 
238 1 23.6587 6.92551 9.63954 
239 1 23.6427 4.13963 12.5225 
242 1 1.29879 12.5144 9.66521 
245 1 4.10322 9.69439 9.65662 
246 1 6.96247 12.4776 9.68253 
249 1 9.77641 9.66379 9.66756 
253 1 15.3738 9.70022 9.62755 
257 1 20.9065 9.74406 9.6363 
254 1 18.1483 12.5362 9.64918 
260 1 20.9045 12.524 12.4488 
241 1 26.4516 9.70671 9.6369 
258 1 23.6825 12.5478 9.65132 
261 1 -1.4852 15.3512 9.68727 
265 1 4.14282 15.3057 9.69142 
250 1 12.5789 12.4878 9.66172 
269 1 9.78815 15.2837 9.71714 
273 1 15.3496 15.3093 9.70572 
277 1 20.8873 15.3631 9.67159 
275 1 18.1417 15.2985 12.509 
279 1 23.6741 15.3368 12.4724 
262 1 1.32562 18.1486 9.73584 
283 1 1.31283 20.9365 12.5344 
281 1 -1.53726 20.9504 9.76383 
266 1 6.98696 18.1204 9.74911 
285 1 4.14789 20.9394 9.76917 
287 1 6.9848 20.9347 12.5128 
289 1 9.80471 20.9271 9.7589 
270 1 12.5676 18.0933 9.73947 
293 1 15.3446 20.9064 9.77157 
274 1 18.1079 18.1394 9.71019 
297 1 20.8486 20.9483 9.74095 
280 1 20.8753 18.1287 12.5367 
295 1 18.107 20.9178 12.5937 
278 1 23.6315 18.1592 9.73073 
264 1 26.4517 18.129 12.5056 
299 1 23.615 20.9146 12.5467 
282 1 1.28157 23.7189 9.78389 
286 1 6.96814 23.7298 9.7294 
288 1 4.1396 23.7405 12.5239 
207 1 6.96085 26.5246 12.5054 
290 1 12.5952 23.7246 9.76277 
211 1 12.5974 26.5225 12.5377 
292 1 9.78948 23.7362 12.5211 
213 1 15.3754 26.5107 9.76172 
296 1 15.3537 23.7027 12.6101 
217 1 20.8358 26.5026 9.74058 
294 1 18.0947 23.7052 9.77114 
300 1 20.8536 23.7344 12.5865 
215 1 18.1125 26.5101 12.6165 
298 1 23.5763 23.7366 9.76198 
284 1 26.3893 23.7139 12.5536 
302 1 1.31327 1.35127 15.2613 
306 1 6.94476 1.33954 15.2745 
310 1 12.5498 1.3632 15.3314 
314 1 18.1198 1.38995 15.4124 
318 1 23.6649 1.39442 15.3726 
301 1 26.4185 -1.44671 15.3152 
223 1 1.31412 4.12329 12.464 
322 1 1.34614 6.91418 15.2386 
227 1 6.96354 4.11112 12.4563 
228 1 4.12629 6.88727 12.4336 
325 1 4.14168 4.11705 15.2334 
326 1 6.9254 6.8812 15.2107 
231 1 12.5858 4.12542 12.469 
232 1 9.79323 6.8685 12.4405 
329 1 9.74333 4.12922 15.264 
236 1 15.3589 6.89783 12.4481 
333 1 15.3246 4.14257 15.3432 
330 1 12.5569 6.88072 15.2799 
235 1 18.1343 4.16329 12.5257 
337 1 20.9001 4.18523 15.3689 
334 1 18.1125 6.95383 15.306 
224 1 26.4447 6.91978 12.4505 
321 1 26.4823 4.15124 15.2815 
338 1 23.7106 6.9443 15.2825 
243 1 1.31524 9.69436 12.432 
247 1 6.95107 9.65248 12.4196 
248 1 4.14659 12.4728 12.4306 
345 1 4.14194 9.66535 15.1933 
346 1 6.95232 12.4376 15.1976 
349 1 9.73332 9.6415 15.2223 
251 1 12.5958 9.65535 12.421 
353 1 15.3338 9.67379 15.2666 
255 1 18.1327 9.71188 12.4409 
357 1 20.9308 9.71621 15.27 
259 1 23.6883 9.73044 12.4353 
244 1 26.4748 12.5193 12.4344 
341 1 26.5031 9.72703 15.2364 
358 1 23.704 12.5316 15.2381 
263 1 1.32726 15.3021 12.46 
342 1 1.35474 12.4962 15.2163 
267 1 6.97091 15.2787 12.4585 
365 1 4.1619 15.2788 15.2171 
350 1 12.5306 12.4239 15.2408 
252 1 9.785 12.4461 12.4411 
369 1 9.75126 15.2495 15.2346 
271 1 12.5787 15.2693 12.5123 
256 1 15.361 12.4744 12.4543 
373 1 15.3353 15.2244 15.301 
354 1 18.139 12.4518 15.2857 
377 1 20.8978 15.2866 15.3019 
361 1 26.4657 15.3232 15.2506 
362 1 1.33406 18.1074 15.2496 
268 1 4.13968 18.1041 12.4865 
366 1 6.96661 18.0822 15.2371 
385 1 4.16832 20.9234 15.2421 
291 1 12.5798 20.9074 12.5755 
272 1 9.78661 18.1067 12.5159 
389 1 9.75469 20.9109 15.2981 
370 1 12.5508 18.0568 15.3052 
276 1 15.3582 18.0942 12.5579 
393 1 15.3348 20.8908 15.388 
374 1 18.1117 18.0582 15.3439 
397 1 20.8589 20.8837 15.3687 
378 1 23.6422 18.0922 15.3216 
381 1 26.4242 20.9007 15.2924 
382 1 1.29648 23.706 15.2759 
305 1 4.12906 26.506 15.2691 
386 1 6.96881 23.7405 15.2725 
309 1 9.76986 26.5383 15.301 
390 1 12.5594 23.7281 15.3505 
313 1 15.3505 26.528 15.3794 
394 1 18.1141 23.6952 15.4204 
317 1 20.892 26.529 15.4132 
398 1 23.6273 23.6999 15.3461 
402 1 1.33113 1.27181 20.884 
304 1 -1.45676 1.35792 18.1059 
308 1 4.10407 1.30958 18.0444 
406 1 6.85526 1.30729 20.8389 
312 1 9.70151 1.34359 18.0943 
410 1 12.4666 1.33992 20.9364 
316 1 15.3126 1.36006 18.182 
320 1 20.89 1.40719 18.2023 
414 1 18.0923 1.37702 20.9744 
418 1 23.7052 1.36059 20.9374 
323 1 1.36696 4.10813 18.0529 
324 1 -1.40925 6.92886 18.0806 
421 1 -1.39854 4.13447 20.9054 
422 1 1.37004 6.89695 20.8794 
327 1 6.9052 4.11606 18.036 
328 1 4.14119 6.88997 18.0349 
425 1 4.09552 4.06739 20.8677 
426 1 6.8786 6.86247 20.8663 
332 1 9.70131 6.8753 18.0368 
429 1 9.63333 4.09957 20.8807 
331 1 12.4844 4.10223 18.1362 
430 1 12.4068 6.89325 20.9095 
336 1 15.2583 6.91685 18.1441 
433 1 15.2686 4.16141 20.9515 
335 1 18.0797 4.18726 18.1742 
340 1 20.9014 6.96283 18.1417 
437 1 20.8811 4.19836 20.9757 
434 1 18.0654 6.95965 20.9416 
339 1 23.7116 4.20126 18.1672 
438 1 23.7526 6.97077 20.9425 
343 1 1.37449 9.69202 18.0328 
441 1 -1.40034 9.72451 20.8837 
442 1 1.3837 12.4932 20.835 
347 1 6.90816 9.64042 18.0095 
445 1 4.1304 9.67859 20.8485 
348 1 4.16869 12.4665 17.9849 
351 1 12.4875 9.67478 18.0616 
449 1 9.66052 9.65954 20.8486 
453 1 15.2255 9.68626 20.9154 
356 1 15.2985 12.4452 18.0933 
355 1 18.1069 9.70425 18.133 
457 1 20.9241 9.73481 20.9376 
360 1 20.9305 12.4801 18.0962 
454 1 18.0826 12.472 20.8987 
359 1 23.7405 9.71867 18.0716 
344 1 26.5174 12.5091 18.03 
363 1 1.35982 15.2914 17.9946 
367 1 6.94831 15.253 17.9868 
446 1 6.91884 12.4573 20.8026 
465 1 4.16016 15.2715 20.7985 
450 1 12.4365 12.4558 20.8467 
352 1 9.69426 12.4335 17.9987 
469 1 9.68594 15.2365 20.7996 
371 1 12.4955 15.2245 18.0395 
473 1 15.2574 15.2355 20.8573 
375 1 18.1014 15.2294 18.1004 
477 1 20.8982 15.2366 20.9008 
458 1 23.7474 12.5009 20.8922 
379 1 23.7082 15.2685 18.0992 
461 1 26.5402 15.2753 20.8418 
383 1 1.33701 20.8889 18.0132 
462 1 1.38031 18.0556 20.8087 
368 1 4.17337 18.0711 17.9917 
387 1 6.94001 20.9024 18.0305 
466 1 6.94012 18.0689 20.7909 
485 1 4.15075 20.8649 20.7872 
372 1 9.72625 18.0619 18.0382 
489 1 9.70241 20.8846 20.8225 
376 1 15.3018 18.0254 18.0863 
391 1 12.512 20.8911 18.106 
470 1 12.4778 18.0407 20.8494 
493 1 15.2978 20.8225 20.881 
380 1 20.8897 18.0345 18.1506 
395 1 18.118 20.8402 18.1572 
474 1 18.0736 17.998 20.8957 
497 1 20.8989 20.7931 20.9437 
364 1 26.4928 18.0926 18.0616 
399 1 23.6659 20.8474 18.1153 
478 1 23.7214 18.0353 20.9242 
481 1 26.5026 20.8383 20.8695 
303 1 1.30822 26.4678 18.0343 
482 1 1.33234 23.6589 20.8105 
401 1 -1.457 26.4385 20.8731 
388 1 4.13879 23.6948 18.0135 
307 1 6.92765 26.4944 18.0557 
405 1 4.1091 26.4418 20.8401 
486 1 6.91979 23.6863 20.8163 
392 1 9.72945 23.7354 18.0651 
409 1 9.68861 26.4943 20.8836 
311 1 12.5363 26.5257 18.1392 
413 1 15.2985 26.4989 20.9661 
396 1 15.3385 23.7075 18.1848 
490 1 12.5132 23.6853 20.8717 
315 1 18.1111 26.507 18.2044 
400 1 20.8963 23.6679 18.1739 
494 1 18.1079 23.6231 20.9495 
417 1 20.8866 26.4698 20.9557 
319 1 23.6779 26.4844 18.1651 
384 1 26.4483 23.6595 18.079 
498 1 23.7007 23.6047 20.9189 
2 1 1.27053 1.23611 26.4981 
404 1 -1.47195 1.25851 23.6913 
1 1 -1.49998 -1.55026 26.4609 
408 1 4.06757 1.2528 23.7005 
407 1 6.86717 -1.48601 23.6444 
9 1 9.62079 -1.48709 26.4654 
412 1 9.62056 1.30942 23.6672 
416 1 15.2472 1.35745 23.7042 
411 1 12.4374 -1.48063 23.6878 
14 1 18.061 1.34101 26.431 
420 1 20.8929 1.35223 23.6988 
17 1 20.9013 -1.49626 26.4333 
18 1 23.6778 1.27852 26.4611 
419 1 23.6806 -1.52497 23.6574 
423 1 1.32094 4.05823 23.7149 
424 1 -1.40924 6.9311 23.7377 
427 1 6.82148 4.05333 23.6989 
428 1 4.09101 6.87861 23.722 
30 1 12.3744 6.89215 26.475 
432 1 9.58682 6.86028 23.714 
431 1 12.4081 4.12902 23.6903 
33 1 15.2159 4.13157 26.4454 
436 1 15.232 6.94325 23.7133 
435 1 18.0627 4.16168 23.7133 
37 1 20.8767 4.14359 26.4545 
34 1 18.0595 6.95056 26.4669 
440 1 20.9078 6.97475 23.7293 
21 1 26.4618 4.06336 26.5067 
38 1 23.7099 6.96283 26.5014 
439 1 23.7287 4.14591 23.7107 
443 1 1.36136 9.71801 23.7264 
447 1 6.86669 9.66682 23.6773 
49 1 9.58602 9.68172 26.5131 
451 1 12.3875 9.66705 23.6938 
53 1 15.1904 9.714 26.4708 
455 1 18.0568 9.73569 23.7087 
459 1 23.7561 9.76279 23.7385 