LAMMPS (7 Aug 2019)
Reading data file ...
  orthogonal box = (-1.4719 -1.4719 -1.4719) to (26.4719 26.4719 26.4719)
  1 by 1 by 1 MPI processor grid
  reading atoms ...
  500 atoms
  reading velocities ...
  500 velocities
  read_data CPU = 0.00370002 secs
Neighbor list info ...
  update every 1 steps, delay 10 steps, check yes
  max neighbors/atom: 2000, page size: 100000
  master list distance cutoff = 8
  ghost atom cutoff = 8
  binsize = 4, bins = 7 7 7
  1 neighbor lists, perpetual/occasional/extra = 1 0 0
  (1) pair lj/cut, perpetual
      attributes: half, newton on
      pair build: half/bin/atomonly/newton
      stencil: half/bin/3d/newton
      bin: standard
Setting up Verlet run ...
  Unit style    : real
  Current step  : 0
  Time step     : 1
Per MPI rank memory allocation (min/avg/max) = 3.998 | 3.998 | 3.998 Mbytes
Step Temp PotEng Press Volume Density Lx 
       0   0.94924373   -1315.7856    26.487323    21820.062    3.1885758    27.943791 
      10   0.94790416   -1315.7831      25.3601    21820.826    3.1884641    27.944117 
      20   0.94684787   -1315.7801    22.021548    21823.055    3.1881385    27.945069 
      30   0.94613183   -1315.7763    16.769683    21826.555    3.1876272    27.946563 
      40   0.94582752   -1315.7713    10.071562    21831.025    3.1869746     27.94847 
      50   0.94601143   -1315.7649    2.5197644    21836.077    3.1862371    27.950626 
      60   0.94674832    -1315.757   -5.2218116    21841.277    3.1854785    27.952845 
      70   0.94806538   -1315.7476   -12.477295    21846.177    3.1847641    27.954935 
      80   0.94991793    -1315.737   -18.617731    21850.357    3.1841549    27.956717 
      90   0.95215354   -1315.7255   -23.114464     21853.46    3.1837028    27.958041 
     100   0.95449051   -1315.7134   -25.582888    21855.226    3.1834455    27.958794 
     110   0.95653202    -1315.701   -25.813543    21855.511    3.1834039    27.958916 
     120    0.9578287   -1315.6883   -23.788655    21854.303      3.18358      27.9584 
     130   0.95797754   -1315.6752   -19.683231    21851.718    3.1839565    27.957298 
     140   0.95671821   -1315.6613   -13.850787    21847.995     3.184499     27.95571 
     150   0.95398395   -1315.6465   -6.7946349    21843.473    3.1851584    27.953781 
     160    0.9498893   -1315.6304   0.87352461    21838.559    3.1858751    27.951685 
     170   0.94467198   -1315.6131    8.4849933    21833.697    3.1865846     27.94961 
     180   0.93862478   -1315.5946    15.371742    21829.326    3.1872225    27.947745 
     190   0.93204488   -1315.5754    20.925598    21825.845    3.1877309     27.94626 
     200   0.92520717   -1315.5557    24.653497    21823.573    3.1880628     27.94529 
     210   0.91835347   -1315.5359    26.223196    21822.724    3.1881868    27.944927 
     220   0.91168804   -1315.5161    25.494534    21823.389    3.1880896    27.945211 
     230    0.9053726   -1315.4963     22.53271    21825.526    3.1877775    27.946123 
     240   0.89951917   -1315.4764    17.602052    21828.964    3.1872755    27.947591 
     250   0.89418209    -1315.456    11.141005    21833.419     3.186625    27.949492 
     260   0.88935302   -1315.4349    3.7211679     21838.52    3.1858808    27.951668 
     270   0.88496415   -1315.4129   -4.0051177    21843.836    3.1851053    27.953936 
     280   0.88090333   -1315.3901   -11.363206    21848.923    3.1843638    27.956106 
     290   0.87704014   -1315.3667   -17.715013    21853.353    3.1837183    27.957995 
     300   0.87325591    -1315.343   -22.513193    21856.759    3.1832222    27.959448 
     310   0.86946759   -1315.3193   -25.346454    21858.862    3.1829159    27.960344 
     320   0.86563767    -1315.296   -25.972897    21859.498    3.1828233    27.960616 
     330    0.8617694   -1315.2729    -24.33935     21858.63    3.1829497    27.960245 
     340    0.8578923   -1315.2501     -20.5856    21856.353    3.1832813    27.959275 
     350   0.85404503   -1315.2272   -15.033288    21852.885    3.1837865    27.957796 
     360   0.85026113    -1315.204   -8.1600434    21848.549    3.1844184    27.955946 
     370   0.84656043     -1315.18  -0.56036722    21843.742    3.1851192    27.953896 
     380   0.84294635   -1315.1551    7.1042141    21838.904    3.1858247    27.951832 
     390   0.83940821   -1315.1296    14.162089    21834.479    3.1864704    27.949944 
     400   0.83592656   -1315.1034    19.990914    21830.873    3.1869967    27.948405 
     410   0.83247951   -1315.0771    24.073972    21828.423    3.1873544     27.94736 
     420   0.82904814   -1315.0508     26.04793    21827.364    3.1875091    27.946908 
     430   0.82561995   -1315.0248    25.736931    21827.809    3.1874441    27.947098 
     440   0.82219001   -1314.9989     23.16923     21829.74    3.1871621    27.947922 
     450   0.81876018    -1314.973    18.574467    21833.009    3.1866848    27.949317 
     460   0.81533728   -1314.9468    12.361913    21837.353     3.186051     27.95117 
     470   0.81193078     -1314.92    5.0821476    21842.412    3.1853131    27.953329 
     480   0.80855078   -1314.8924   -2.6236049    21847.765    3.1845326    27.955612 
     490   0.80520635   -1314.8639   -10.081191    21852.969    3.1837743    27.957831 
     500   0.80190447   -1314.8348   -16.642679    21857.589    3.1831013    27.959802 
     510   0.79864943   -1314.8053   -21.741709    21861.247    3.1825687    27.961361 
     520   0.79544249   -1314.7759   -24.940633    21863.646    3.1822195    27.962384 
     530     0.792282   -1314.7466   -25.966132    21864.601    3.1820805    27.962791 
     540   0.78916361   -1314.7178   -24.731079    21864.051    3.1821605    27.962557 
     550   0.78608085   -1314.6891   -21.341412    21862.069     3.182449    27.961712 
     560   0.78302581   -1314.6605   -16.087663    21858.852    3.1829174     27.96034 
     570   0.77999007   -1314.6315   -9.4215975    21854.705    3.1835214    27.958572 
     580   0.77696567   -1314.6019    -1.919309    21850.014    3.1842049    27.956571 
     590   0.77394612   -1314.5716    5.7668838    21845.213    3.1849046    27.954524 
     600   0.77092731   -1314.5405     12.96431    21840.749    3.1855556    27.952619 
     610   0.76790821   -1314.5089    19.039092    21837.035    3.1860974    27.951035 
     620   0.76489138   -1314.4772    23.453279    21834.422    3.1864786     27.94992 
     630   0.76188313   -1314.4456     25.81436    21833.166     3.186662    27.949384 
     640   0.75889329   -1314.4143    25.911983    21833.401    3.1866278    27.949484 
     650   0.75593483   -1314.3834    23.737806    21835.133     3.186375    27.950223 
     660   0.75302306   -1314.3527    19.486249    21838.236    3.1859221    27.951547 
     670   0.75017476    -1314.322    13.536036    21842.467     3.185305    27.953352 
     680   0.74740718   -1314.2908    6.4146623    21847.481     3.184574    27.955491 
     690   0.74473707   -1314.2591    -1.250301    21852.867    3.1837891    27.957788 
     700   0.74217985   -1314.2267   -8.7879105    21858.181     3.183015    27.960054 
     710   0.73974893   -1314.1939   -15.542978    21862.988    3.1823153    27.962103 
     720   0.73745531   -1314.1608   -20.932284    21866.895    3.1817467    27.963769 
     730   0.73530755    -1314.128   -24.493326    21869.589    3.1813548    27.964917 
     740   0.73331198   -1314.0956   -25.922071    21870.863    3.1811694     27.96546 
     750   0.73147325   -1314.0637   -25.097332    21870.635    3.1812025    27.965363 
     760   0.72979514   -1314.0325   -22.090346    21868.953    3.1814472    27.964646 
     770   0.72828156   -1314.0015   -17.159055    21865.991    3.1818782    27.963384 
     780   0.72693769   -1313.9706   -10.727411    21862.036    3.1824538    27.961698 
     790   0.72577108   -1313.9394    -3.350867    21857.462    3.1831198    27.959747 
     800   0.72479265   -1313.9079    4.3297939    21852.696    3.1838141    27.957715 
     810   0.72401756   -1313.8759    11.643058    21848.182    3.1844719     27.95579 
     820   0.72346565   -1313.8438    17.945426    21844.343    3.1850315    27.954153 
     830   0.72316162   -1313.8119    22.679127    21841.544    3.1854397    27.952958 
     840   0.72313476   -1313.7805     25.42326    21840.056    3.1856567    27.952324 
     850   0.72341831     -1313.75     25.93304    21840.039    3.1856592    27.952316 
     860   0.72404844   -1313.7203    24.162867     21841.52    3.1854431    27.952948 
     870   0.72506308   -1313.6914    20.270604    21844.399    3.1850234    27.954176 
     880   0.72650241   -1313.6385    14.753479     21848.45    3.1844328    27.955904 
     890   0.72842177   -1313.5859    7.9517857    21853.354    3.1837182    27.957996 
     900    0.7308507   -1313.5579   0.31352673    21858.717     3.182937    27.960283 
     910   0.73380493   -1313.5054   -7.1922244      21864.1    3.1821535    27.962577 
     920   0.73732235    -1313.453   -14.061393    21869.064     3.181431    27.964694 
     930   0.74140506   -1313.4257   -19.852113    21873.213    3.1808276    27.966462 
     940   0.74606085    -1313.399   -23.917962    21876.211    3.1803917     27.96774 
     950   0.75129712   -1313.3734   -25.911764    21877.822    3.1801575    27.968426 
     960   0.75711506    -1313.349   -25.664196     21877.93    3.1801418    27.968472 
     970   0.76350974   -1313.3259   -23.197198     21876.55    3.1803425    27.967884 
     980   0.77047046   -1313.3038   -18.722168    21873.825    3.1807387    27.966723 
     990   0.77798125   -1313.2824   -12.623048    21870.016    3.1812927    27.965099 
    1000   0.78602148   -1313.2614   -5.4252283    21865.476    3.1819531    27.963164 
    1010   0.79456655   -1313.2406    2.2478275    21860.625    3.1826592    27.961096 
    1020   0.80358857   -1313.2199    9.7273159    21855.906    3.1833464    27.959084 
    1030   0.81305712   -1313.1994    16.357159    21851.752    3.1839515    27.957313 
    1040   0.82294945   -1313.1549    21.700014    21848.549    3.1844183    27.955947 
    1050   0.83322927   -1313.1603     24.83633      21846.6    3.1847025    27.955115 
    1060   0.84385804   -1313.1422    25.936673    21846.088    3.1847771    27.954897 
    1070    0.8547998   -1313.1252    24.752636    21847.076     3.184633    27.955318 
    1080    0.8660202   -1313.1092    21.390496    21849.496    3.1842803     27.95635 
    1090   0.87748526    -1313.094    16.150168    21853.154    3.1837473     27.95791 
    1100   0.88916286   -1313.0546    9.6477468    21857.747    3.1830783    27.959869 
    1110   0.90102088     -1313.04    2.1589766    21862.896    3.1823286    27.962064 
    1120   0.91302572   -1312.9763   -5.2098614    21868.172    3.1815609    27.964313 
    1130   0.92515803   -1312.9618   -12.412918     21873.14    3.1808382    27.966431 
    1140   0.93735443   -1312.9477   -18.532905    21877.389    3.1802205    27.968242 
    1150   0.94957854   -1312.9342   -23.044021    21880.563    3.1797591    27.969594 
    1160   0.96181844    -1312.971   -25.857837    21882.396    3.1794927    27.970375 
    1170    0.9740373   -1312.9107   -25.843048    21882.735    3.1794435     27.97052 
    1180   0.98619113   -1312.8765    -23.75044    21881.575     3.179612    27.970026 
    1190   0.99819801    -1312.868   -19.758929    21879.039    3.1799807    27.968945 
    1200     1.010028   -1312.8605   -14.061577    21875.357    3.1805158    27.967376 
    1210      1.02161   -1312.8537   -7.1489882    21870.863    3.1811694     27.96546 
    1220    1.0328703   -1312.8475   0.38035986    21865.956    3.1818832    27.963369 
    1230    1.0437478   -1312.8665    7.7247023    21861.071    3.1825944    27.961286 
    1240     1.054159   -1312.8615    14.536249    21856.634    3.1832403    27.959395 
    1250    1.0640183   -1312.8575     20.06252    21853.042    3.1837636    27.957863 
    1260    1.0732331   -1312.8549    23.812997    21850.612    3.1841177    27.956826 
    1270    1.0817032    -1312.854    25.453247    21849.561    3.1842709    27.956378 
    1280    1.0893214   -1312.8549     24.83626    21849.982    3.1842094    27.956558 
    1290    1.0959765   -1312.8578    22.016319    21851.841    3.1839386     27.95735 
    1300    1.1015568   -1312.8625    17.243843    21854.974    3.1834822    27.958686 
    1310    1.1059794   -1312.8687    10.936045    21859.108    3.1828801    27.960449 
    1320    1.1091441   -1312.8762    3.6515212    21863.879    3.1821856    27.962483 
    1330    1.1109766   -1312.8847   -3.9668534    21868.861    3.1814606    27.964607 
    1340    1.1114588   -1312.8945   -11.254884    21873.613    3.1807694    27.966633 
    1350    1.1106487   -1312.9302   -17.731111    21877.712    3.1801735    27.968379 
    1360    1.1086708   -1312.9185   -22.391379    21880.787    3.1797266    27.969689 
    1370     1.105681   -1312.9334   -25.283396    21882.561    3.1794688    27.970446 
    1380    1.1019363   -1312.9997   -26.310638    21882.868    3.1794241    27.970576 
    1390    1.0977786   -1313.0439   -24.935682    21881.652     3.179601    27.970058 
    1400    1.0934776   -1313.0656   -21.270942    21878.989    3.1799879    27.968923 
    1410    1.0893271   -1313.0892   -15.779585    21875.094    3.1805542    27.967263 
    1420    1.0855944   -1313.1389   -9.0804055    21870.284    3.1812537    27.965213 
    1430    1.0824741   -1313.1652    -1.451662    21864.951    3.1820296     27.96294 
    1440    1.0800937   -1313.1924    6.2947896    21859.537    3.1828176    27.960632 
    1450    1.0785256   -1313.2206    13.482596    21854.491    3.1835526     27.95848 
    1460    1.0777894   -1313.2499    19.480195    21850.227    3.1841737    27.956662 
    1470    1.0778612   -1313.2806    23.757856    21847.093    3.1846305    27.955326 
    1480     1.078687   -1313.3374    25.786499    21845.334     3.184887    27.954575 
    1490    1.0801907   -1313.3713    25.685771    21845.067    3.1849259    27.954461 
    1500     1.082276   -1313.4068    23.316854    21846.287    3.1847481    27.954982 
    1510    1.0848418   -1313.4435    18.892468    21848.855    3.1843738    27.956077 
    1520    1.0877858   -1313.4812    12.807426    21852.515    3.1838404    27.957638 
    1530     1.091009   -1313.5193    5.6016736    21856.917    3.1831991    27.959515 
    1540    1.0944196   -1313.5576   -2.0894128    21861.644     3.182511     27.96153 
    1550    1.0979505   -1313.5714   -9.4449083    21866.251    3.1818403    27.963495 
    1560    1.1015273   -1313.6345    -16.27309    21870.311    3.1812497    27.965225 
    1570     1.105087   -1313.6733   -21.533818    21873.428    3.1807964    27.966554 
    1580    1.1085672   -1313.7373   -25.074953    21875.296    3.1805247     27.96735 
    1590    1.1119432   -1313.7776   -26.295581    21875.714     3.180464    27.967528 
    1600    1.1151564   -1313.8187   -25.237286    21874.607    3.1806249    27.967056 
    1610    1.1181749   -1313.8604   -21.989786    21872.038    3.1809985    27.965961 
    1620    1.1209706   -1313.9024   -16.830136    21868.195    3.1815575    27.964323 
    1630    1.1235184   -1313.9444   -10.200548     21863.38    3.1822582    27.962271 
    1640    1.1257959   -1313.9859   -2.6724059    21857.977    3.1830448    27.959967 
    1650    1.1277827   -1314.0268    5.1012717    21852.423    3.1838538    27.957599 
    1660    1.1294607   -1314.0669    12.441584    21847.168    3.1846197    27.955357 
    1670    1.1308153   -1314.1065    18.703284    21842.635    3.1852805    27.953424 
    1680    1.1318358   -1314.1458    23.332811    21839.186    3.1857835    27.951953 
    1690    1.1325164   -1314.1852    25.919183    21837.088    3.1860897    27.951057 
    1700    1.1328574   -1314.2247    26.232419    21836.488    3.1861772    27.950801 
    1710    1.1328655   -1314.2644    24.245265    21837.405    3.1860435    27.951192 
    1720    1.1325545   -1314.3041    20.135761    21839.722    3.1857053    27.952181 
    1730    1.1319445   -1314.3436     14.27034    21843.204    3.1851976    27.953667 
    1740    1.1310619   -1314.3824    7.1694099     21847.51    3.1845697    27.955504 
    1750    1.1299379   -1314.4204  -0.54075696    21852.232    3.1838817    27.957517 
    1760    1.1286071   -1314.4574    -8.184719    21856.921    3.1831985    27.959517 
    1770    1.1271056   -1314.4937   -15.097513    21861.137    3.1825847    27.961314 
    1780    1.1254696   -1314.5295   -20.681823    21864.478    3.1820983    27.962739 
    1790    1.1237328   -1314.5652      -24.458    21866.621    3.1817865    27.963652 
    1800    1.1219252    -1314.601   -26.103279    21867.347    3.1816809    27.963962 
    1810    1.1200714    -1314.637   -25.477687     21866.56    3.1817954    27.963626 
    1820    1.1181899   -1314.6734    -22.63514    21864.298    3.1821245    27.962662 
    1830    1.1163089   -1314.7343   -17.967734    21860.725    3.1826447    27.961139 
    1840    1.1144278   -1314.7704   -11.577188    21856.114    3.1833161    27.959173 
    1850    1.1125351   -1314.8059   -4.1651261    21850.837     3.184085    27.956922 
    1860     1.110622   -1314.8405    3.6252962    21845.321    3.1848888     27.95457 
    1870    1.1086748   -1314.8742    11.113697     21840.02     3.185662    27.952308 
    1880    1.1066765   -1314.9072    17.641868    21835.364    3.1863412    27.950322 
    1890    1.1046085   -1314.9397     22.63273     21831.73    3.1868715    27.948771 
    1900     1.102452   -1314.9721    25.643208    21829.406    3.1872109    27.947779 
    1910    1.1001895   -1315.0045    26.405553    21828.563    3.1873339     27.94742 
    1920    1.0978061   -1315.0371    24.852601    21829.246    3.1872342    27.947711 
    1930    1.0952905   -1315.0695    21.124114    21831.364     3.186925    27.948615 
    1940    1.0926354   -1315.1017    15.553465    21834.702    3.1864379    27.950039 
    1950    1.0898373   -1315.1331    8.6362129    21838.938    3.1858198    27.951847 
    1960    1.0868966   -1315.1635   0.98408218    21843.673    3.1851292    27.953866 
    1970    1.0838159   -1315.1928   -6.7307054    21848.464    3.1844307     27.95591 
    1980    1.0805995    -1315.221   -13.835136    21852.866    3.1837893    27.957788 
    1990    1.0772518   -1315.2484    -19.71361    21856.467    3.1832647    27.959323 
    2000    1.0737759   -1315.2752   -23.859772    21858.926    3.1829066    27.960372 
    2010    1.0701725   -1315.3018    -25.91812    21860.004    3.1827497    27.960831 
    2020    1.0664388   -1315.3282   -25.712641    21859.581    3.1828113    27.960651 
    2030    1.0625678   -1315.3544   -23.260794    21857.669    3.1830896    27.959836 
    2040    1.0585486   -1315.3801   -18.772087    21854.413    3.1835639    27.958447 
    2050    1.0543662    -1315.405   -12.631315    21850.073    3.1841962    27.956597 
    2060    1.0500028   -1315.4287   -5.3673972    21845.006    3.1849349    27.954435 
    2070    1.0454393   -1315.4509    2.3903216    21839.631    3.1857186    27.952142 
    2080    1.0406564   -1315.4715    9.9653542    21834.399     3.186482     27.94991 
    2090    1.0356372   -1315.4906    16.692878    21829.746    3.1871612    27.947925 
    2100    1.0303688   -1315.5085    21.979039    21826.061    3.1876994    27.946352 
    2110    1.0248442   -1315.5254    25.355171    21823.646    3.1880521    27.945321 
    2120    1.0190644   -1315.5415    26.521373    21822.696    3.1881909    27.944915 
    2130     1.013039   -1315.5569    25.374748    21823.277     3.188106    27.945164 
    2140     1.006787   -1315.5715    22.019107    21825.323    3.1878072    27.946037 
    2150    1.0003372   -1315.5851    16.755042    21828.639    3.1873229    27.947452 
    2160   0.99372755   -1315.5972    10.051501    21832.923    3.1866975     27.94928 
    2170   0.98700415   -1315.6076    2.5020784    21837.786    3.1859878    27.951355 
    2180      0.98022   -1315.6162   -5.2292413    21842.794    3.1852573    27.953492 
    2190   0.97343358    -1315.623   -12.467349    21847.499    3.1845714    27.955499 
    2200   0.96670728   -1315.6282   -18.584697    21851.482    3.1839909    27.957198 
    2210   0.96010602   -1315.6322     -23.0544     21854.39    3.1835673    27.958437 
    2220   0.95369617   -1315.6354   -25.493702    21855.962    3.1833382    27.959108 
    2230   0.94754475   -1315.6378   -25.694889    21856.059    3.1833241    27.959149 
    2240   0.94171898   -1315.6396     -23.6418     21854.67    3.1835265    27.958557 
    2250   0.93628613   -1315.6407   -19.511021    21851.913    3.1839281    27.957381 
    2260   0.93131352   -1315.6406   -13.657712    21848.029    3.1844941    27.955725 
    2270   0.92686833   -1315.6392   -6.5868611    21843.359    3.1851749    27.953733 
    2280   0.92301714   -1315.6361    1.0883394    21838.312    3.1859111    27.951579 
    2290   0.91982459   -1315.6314    8.6982245    21833.331    3.1866379    27.949454 
    2300   0.91735092   -1315.6251    15.574631    21828.856    3.1872911    27.947545 
    2310   0.91564813   -1315.6175    21.110249    21825.284    3.1878128     27.94602 
    2320    0.9147545   -1315.6089    24.813838    21822.933    3.1881563    27.945017 
    2330     0.914688   -1315.5998    26.355748    21822.015    3.1882904    27.944625 
    2340   0.91543928   -1315.5901    25.598857    21822.618    3.1882023    27.944882 
    2350   0.91696576   -1315.5799    22.611474    21824.699    3.1878983     27.94577 
    2360   0.91918864   -1315.5689    17.660739    21828.084    3.1874039    27.947215 
    2370    0.9219943   -1315.5568    11.187295    21832.489    3.1867609    27.949095 
    2380   0.92524082   -1315.5434    3.7640931    21837.539    3.1860239     27.95125 
    2390   0.92876864   -1315.5285   -3.9561535    21842.806    3.1852557    27.953497 
    2400   0.93241318   -1315.5121   -11.299455    21847.843    3.1845213    27.955645 
    2410    0.9360168   -1315.4945   -17.629377    21852.226    3.1838825    27.957515 
    2420    0.9394378    -1315.476   -22.401111    21855.588    3.1833928    27.958948 
    2430   0.94255583    -1315.457   -25.206576    21857.652    3.1830921    27.959829 
    2440   0.94527364   -1315.4376   -25.807472    21858.257     3.183004    27.960087 
    2450   0.94751641   -1315.4179   -24.154231    21857.369    3.1831334    27.959708 
    2460   0.94922981   -1315.3979   -20.389849    21855.083    3.1834664    27.958733 
    2470   0.95037756   -1315.3773   -14.838382    21851.618     3.183971    27.957256 
    2480   0.95093927   -1315.3557   -7.9787561    21847.299    3.1846006    27.955413 
    2490    0.9509086   -1315.3329  -0.40542562    21842.521    3.1852972    27.953375 
    2500   0.95029183   -1315.3088    7.2215588    21837.724    3.1859969    27.951329 
    2510   0.94910676   -1315.2835    14.233412    21833.347    3.1866355    27.949461 
    2520   0.94738151   -1315.2572    20.011731    21829.796    3.1871539    27.947946 
    2530   0.94515342   -1315.2304    24.044467    21827.403    3.1875033    27.946925 
    2540   0.94246748   -1315.2032    25.973198      21826.4    3.1876498    27.946496 
    2550   0.93937463    -1315.176    25.626681    21826.897    3.1875773    27.946708 
    2560   0.93592963   -1315.1486     23.03696    21828.873    3.1872888    27.947552 
    2570    0.9321888   -1315.1209    18.436207    21832.178    3.1868062    27.948962 
    2580    0.9282076   -1315.0927    12.234658    21836.548    3.1861684    27.950827 
    2590   0.92403831   -1315.0637     4.982158    21841.624     3.185428    27.952992 
    2600   0.91972793   -1315.0337   -2.6824566    21846.987    3.1846461     27.95528 
    2610   0.91531654   -1315.0026   -10.088853    21852.193    3.1838873    27.957501 
    2620   0.91083606   -1314.9708      -16.594    21856.815     3.183214    27.959472 
    2630   0.90630978   -1314.9385   -21.637065    21860.475    3.1826811    27.961032 
    2640   0.90175233   -1314.9061   -24.786047    21862.881    3.1823308    27.962058 
    2650   0.89717036   -1314.8738    -25.77288    21863.851    3.1821896    27.962471 
    2660   0.89256371   -1314.8417   -24.514807    21863.328    3.1822657    27.962249 
    2670    0.8879269   -1314.8098   -21.120826    21861.386    3.1825484    27.961421 
    2680   0.88325098   -1314.7778   -15.882886    21858.223     3.183009    27.960072 
    2690   0.87852543   -1314.7453    -9.252312    21854.143    3.1836032    27.958332 
    2700   0.87374006   -1314.7121   -1.8028401    21849.531    3.1842752    27.956365 
    2710   0.86888677   -1314.6781    5.8173684    21844.818    3.1849622    27.954355 
    2720   0.86396094   -1314.6433      12.9413    21840.446    3.1855998     27.95249 
    2730   0.85896262   -1314.6079    18.941757    21836.825     3.186128    27.950945 
    2740    0.8538971   -1314.5722    23.287859    21834.302    3.1864963    27.949868 
    2750   0.84877517   -1314.5367     25.59386    21833.125     3.186668    27.949366 
    2760   0.84361287   -1314.5014    25.655138    21833.427    3.1866239    27.949495 
    2770   0.83843085   -1314.4664    23.467424    21835.211    3.1863635    27.950256 
    2780   0.83325343   -1314.4316    19.227067     21838.35    3.1859055    27.951596 
    2790    0.8281075   -1314.3967    13.312341      21842.6    3.1852857    27.953409 
    2800   0.82302125   -1314.3614    6.2479029    21847.618    3.1845541    27.955549 
    2810   0.81802308   -1314.3255    -1.343648    21852.996    3.1837704    27.957843 
    2820   0.81314051   -1314.2891   -8.7980186    21858.295    3.1829986    27.960102 
    2830   0.80839955   -1314.2522   -15.467736    21863.083    3.1823015    27.962144 
    2840   0.80382413   -1314.2153   -20.777667    21866.974    3.1817352    27.963803 
    2850   0.79943612   -1314.1786   -24.273038    21869.659    3.1813445    27.964947 
    2860   0.79525551   -1314.1424   -25.656517    21870.938    3.1811586    27.965492 
    2870   0.79130098   -1314.1071   -24.811977    21870.728     3.181189    27.965403 
    2880   0.78759069   -1314.0724   -21.813594    21869.082    3.1814285    27.964701 
    2890   0.78414319   -1314.0382   -16.919793    21866.173    3.1818518    27.963461 
    2900   0.78097845   -1314.0042   -10.552404    21862.286    3.1824175    27.961804 
    2910   0.77811877   -1313.9703   -3.2622037    21857.791    3.1830718    27.959888 
    2920   0.77558949   -1313.9362    4.3169573    21853.112    3.1837534    27.957893 
    2930   0.77344394   -1313.8774    11.668707     21848.69    3.1843979    27.956006 
    2940   0.77169251   -1313.8434    17.848763    21844.946    3.1849436    27.954409 
    2950   0.77036655   -1313.8099    22.461841    21842.236    3.1853387    27.953254 
    2960   0.76950497   -1313.7773    25.098536    21840.828    3.1855441    27.952653 
    2970   0.76914883   -1313.7458    25.524599     21840.87    3.1855379    27.952671 
    2980   0.76935885   -1313.6909    23.848202    21842.392    3.1853159     27.95332 
    2990   0.77015492   -1313.6617    19.923393    21845.292    3.1848931    27.954557 
    3000    0.7715985   -1313.6089    14.400786    21849.345    3.1843024    27.956286 
    3010   0.77374708   -1313.5567     7.616393    21854.232    3.1835903     27.95837 
    3020   0.77658506   -1313.5295  0.022339111    21859.558    3.1828146    27.960641 
    3030   0.78013713   -1313.5026   -7.5649752    21864.884    3.1820393    27.962912 
    3040   0.78442387   -1313.4762   -14.485955     21869.77    3.1813284    27.964994 
    3050   0.78945966   -1313.4505   -20.143287    21873.815    3.1807402    27.966718 
    3060   0.79525243    -1313.426    -24.05202     21876.69    3.1803221    27.967944 
    3070   0.80180354   -1313.4028   -25.879232    21878.169     3.180107    27.968574 
    3080    0.8091079   -1313.3813   -25.470706    21878.147    3.1801102    27.968565 
    3090    0.8171543   -1313.3613    -22.86306    21876.649    3.1803281    27.967926 
    3100   0.82592984    -1313.318   -18.133232    21873.828    3.1807382    27.966724 
    3110   0.83540609   -1313.3004   -11.986342    21869.959    3.1813009    27.965075 
    3120   0.84555224   -1313.3081   -4.9497183    21865.396    3.1819648     27.96313 
    3130   0.85635773   -1313.2672    2.8110681    21860.554    3.1826696    27.961066 
    3140   0.86777092   -1313.2514    10.170639    21855.879    3.1833504    27.959072 
    3150   0.87974883   -1313.2363    16.634124    21851.797    3.1839451    27.957331 
    3160   0.89224828    -1313.222     21.63119     21848.68    3.1843992    27.956002 
    3170    0.9052228   -1313.2091    24.719126    21846.817    3.1846708    27.955208 
    3180   0.91862262   -1313.1976    25.623901    21846.385    3.1847338    27.955023 
    3190   0.93239802   -1313.2123    24.114615    21847.435    3.1845807    27.955471 
    3200   0.94653234   -1313.1794     20.77261    21849.884    3.1842238    27.956516 
    3210   0.96093475   -1313.1478    15.601936    21853.533    3.1836921    27.958072 
    3220    0.9755403   -1313.1417    8.9143838    21858.081    3.1830297    27.960011 
    3230   0.99025061   -1313.1363    1.4464899    21863.143    3.1822928    27.962169 
    3240    1.0049822   -1313.1316   -6.1476854    21868.286    3.1815442    27.964362 
    3250    1.0196847   -1313.0785   -12.911152    21873.076    3.1808476    27.966403 
    3260    1.0342402   -1313.0755   -18.856066    21877.112    3.1802608    27.968123 
    3270    1.0484934   -1313.0739   -23.174398    21880.053    3.1798333    27.969377 
    3280    1.0623116    -1313.074   -25.498999    21881.648    3.1796014    27.970057 
    3290    1.0755464    -1313.076    -25.63435    21881.764    3.1795846    27.970106 
    3300    1.0880323     -1313.08   -23.572018    21880.393    3.1797839    27.969522 
    3310    1.0995976   -1313.0613   -19.342046    21877.657    3.1801815    27.968356 
    3320    1.1100397   -1313.0688   -13.608558    21873.801    3.1807421    27.966713 
    3330    1.1191667   -1313.1022   -6.8660544    21869.159    3.1814173    27.964734 
    3340    1.1267644   -1313.0877   0.75018331    21864.123      3.18215    27.962588 
    3350    1.1326473   -1313.1235    7.9776571    21859.132    3.1828766     27.96046 
    3360    1.1366856   -1313.1606    14.475269     21854.61    3.1835352    27.958531 
    3370    1.1387741   -1313.1747    19.822788     21850.93    3.1840714    27.956962 
    3380    1.1389311   -1313.1907    23.397072    21848.399    3.1844401    27.955883 
    3390    1.1373188   -1313.2088    24.881519    21847.224    3.1846114    27.955382 
    3400    1.1342397   -1313.2293    24.145854    21847.489    3.1845728    27.955494 
    3410     1.130112   -1313.2519    21.258267     21849.15    3.1843307    27.956203 
    3420    1.1254183   -1313.2521    16.629859     21852.04    3.1839096    27.957435 
    3430    1.1206381   -1313.2785    10.376633    21855.888    3.1833491    27.959076 
    3440    1.1161717   -1313.3062    3.2001369    21860.334    3.1827016    27.960972 
    3450    1.1123323   -1313.3352   -4.2673048    21864.964    3.1820277    27.962946 
    3460    1.1093492     -1313.39   -11.522464    21869.344    3.1813904    27.964813 
    3470    1.1073368   -1313.4215   -17.636091    21873.055    3.1808506    27.966395 
    3480    1.1063125   -1313.4791   -22.376056    21875.739    3.1804603    27.967539 
    3490    1.1062481   -1313.5385   -25.185119    21877.122    3.1802592    27.968128 
    3500    1.1070563   -1313.5751   -25.675178    21877.045    3.1802705    27.968095 
    3510    1.1086817   -1313.6627   -24.247587    21875.473    3.1804991    27.967425 
    3520    1.1109545   -1313.7273   -20.578639    21872.496    3.1809318    27.966157 
    3530    1.1137294   -1313.7683   -14.984741    21868.333    3.1815374    27.964382 
    3540    1.1168547   -1313.8345   -8.2428992    21863.305    3.1822691    27.962239 
    3550    1.1201871   -1313.8762  -0.63493539    21857.807    3.1830695    27.959895 
    3560    1.1235384   -1313.9177    7.0317366    21852.278    3.1838749    27.957537 
    3570    1.1267712   -1313.9835    13.939287    21847.161    3.1846207    27.955354 
    3580    1.1297373   -1314.0245    19.781539    21842.855    3.1852484    27.953518 
    3590    1.1322888   -1314.0652    23.894667    21839.698     3.185709    27.952171 
    3600    1.1343075    -1314.106    25.916579    21837.924    3.1859678    27.951414 
    3610    1.1356938   -1314.1466    25.670914    21837.649    3.1860079    27.951297 
    3620    1.1363684    -1314.187     23.18359    21838.857    3.1858315    27.951812 
    3630    1.1362732   -1314.2268     18.68021    21841.405    3.1854599    27.952899 
    3640    1.1353715   -1314.2656    12.564615    21845.032    3.1849311    27.954446 
    3650    1.1336467   -1314.3029    5.3810298    21849.383    3.1842968    27.956302 
    3660    1.1311011   -1314.3384   -2.2360407    21854.044    3.1836177     27.95829 
    3670    1.1277532    -1314.372   -9.6189266    21858.573     3.182958    27.960221 
    3680    1.1236353   -1314.4039   -16.125378    21862.544    3.1823799    27.961914 
    3690    1.1187905   -1314.4342   -21.193419    21865.578    3.1819382    27.963208 
    3700    1.1132698   -1314.4633    -24.38811    21867.384    3.1816755    27.963978 
    3710    1.1071297   -1314.4913   -25.436914    21867.777    3.1816184    27.964145 
    3720    1.1004299   -1314.5184   -24.251447    21866.695    3.1817757    27.963684 
    3730     1.093232   -1314.5444   -20.934382    21864.211    3.1821372    27.962625 
    3740    1.0855989   -1314.5692   -15.771144    21860.517    3.1826749     27.96105 
    3750    1.0775938   -1314.5923   -9.2068632    21855.914    3.1833452    27.959088 
    3760    1.0692809   -1314.6137   -1.8099099    21850.784    3.1840926      27.9569 
    3770    1.0607261    -1314.633    5.7756397    21845.555    3.1848548    27.954669 
    3780    1.0519972   -1314.6506    12.885217    21840.666    3.1855678    27.952584 
    3790    1.0431652   -1314.6665      18.8922    21836.526    3.1861716    27.950818 
    3800    1.0343044   -1314.6812    23.264358    21833.482    3.1866158    27.949519 
    3810    1.0254931   -1314.6952    25.612776    21831.785    3.1868636    27.948795 
    3820    1.0168134   -1314.7085     25.72815    21831.569    3.1868952    27.948702 
    3830    1.0083505   -1314.7215    23.600459    21832.838    3.1867099    27.949244 
    3840    1.0001922   -1314.7339     19.41979     21835.47    3.1863258    27.950367 
    3850   0.99242728   -1314.7456    13.558241    21839.222    3.1857783    27.951968 
    3860   0.98514396   -1314.7564    6.5349624    21843.756    3.1851171    27.953902 
    3870    0.9784285   -1314.7662   -1.0317989    21848.666    3.1844014    27.955996 
    3880   0.97236323    -1314.775   -8.4805769    21853.513     3.183695    27.958063 
    3890   0.96702484    -1314.783   -15.164998    21857.867    3.1830608     27.95992 
    3900   0.96248276   -1314.7906    -20.50925    21861.341     3.182555    27.961401 
    3910   0.95879758   -1314.7982   -24.056211    21863.625    3.1822225    27.962375 
    3920   0.95601963   -1314.8062    -25.50475    21864.515     3.182093    27.962755 
    3930   0.95418766   -1314.8147   -24.733822    21863.928    3.1821785    27.962504 
    3940   0.95332761   -1314.8236   -21.811954    21861.909    3.1824723    27.961643 
    3950    0.9534514    -1314.833   -16.991633     21858.63    3.1829498    27.960245 
    3960    0.9545559   -1314.8423   -10.688914    21854.371    3.1835701    27.958429 
    3970   0.95662183   -1314.8515   -3.4494181    21849.498      3.18428    27.956351 
    3980   0.95961298   -1314.8603    4.0971311    21844.432    3.1850186     27.95419 
    3990   0.96347553   -1314.8688    11.290638    21839.608    3.1857221    27.952132 
    4000   0.96813783   -1314.8771    17.498393    21835.442    3.1863299    27.950355 
    4010   0.97351058   -1314.8856    22.171789    21832.291    3.1867897     27.94901 
    4020   0.97948759   -1314.8944    24.896523    21830.423    3.1870623    27.948214 
    4030   0.98594717   -1314.9039    25.431116    21829.995    3.1871249    27.948031 
    4040   0.99275414    -1314.914    23.729539    21831.036    3.1869729    27.948475 
    4050   0.99976237   -1314.9245    19.945411    21833.446    3.1866211    27.949503 
    4060    1.0068178   -1314.9353    14.417306    21837.006    3.1861016    27.951023 
    4070    1.0137617   -1314.9459    7.6368376    21841.398     3.185461    27.952896 
    4080    1.0204342   -1314.9561   0.20309119    21846.228    3.1847566    27.954957 
    4090    1.0266779   -1314.9657   -7.2317611    21851.068    3.1840513    27.957021 
    4100    1.0323417   -1314.9748   -14.020229    21855.486    3.1834076    27.958905 
    4110    1.0372846   -1314.9837   -19.575358     21859.09    3.1828827    27.960442 
    4120    1.0413798   -1314.9927   -23.420029    21861.559    3.1825233    27.961494 
    4130    1.0445192   -1315.0019   -25.226078     21862.67    3.1823615    27.961968 
    4140    1.0466178   -1315.0115   -24.840643     21862.32    3.1824125    27.961819 
    4150    1.0476181   -1315.0214    -22.29821    21860.533    3.1826727    27.961057 
    4160     1.047494   -1315.0314   -17.817699    21857.457    3.1831206    27.959745 
    4170    1.0462536   -1315.0413   -11.784773    21853.353    3.1837183    27.957995 
    4180    1.0439398   -1315.0505    -4.720377    21848.573    3.1844149    27.955957 
    4190    1.0406293    -1315.059    2.7625186    21843.525    3.1851507    27.953804 
    4200    1.0364279   -1315.0667    10.011005    21838.644    3.1858627    27.951721 
    4210     1.031465   -1315.0737    16.389104    21834.346    3.1864898    27.949887 
    4220    1.0258852   -1315.0802    21.334519        21831    3.1869782     27.94846 
    4230     1.019841   -1315.0866    24.409895    21828.889    3.1872863    27.947559 
    4240    1.0134845   -1315.0931    25.343354     21828.19    3.1873884     27.94726 
    4250    1.0069623   -1315.0998    24.053937    21828.954    3.1872768    27.947587 
    4260    1.0004107   -1315.1066    20.659111    21831.107    3.1869625    27.948505 
    4270   0.99395361   -1315.1132    15.463494    21834.451    3.1864745    27.949932 
    4280   0.98770118   -1315.1193    8.9300887    21838.686    3.1858565    27.951739 
    4290   0.98175003   -1315.1248    1.6372503    21843.434     3.185164    27.953765 
    4300   0.97618354   -1315.1294   -5.7740135    21848.274    3.1844584    27.955829 
    4310   0.97107265   -1315.1332   -12.657077    21852.777    3.1838022     27.95775 
    4320   0.96647658   -1315.1365   -18.415755    21856.545    3.1832533    27.959357 
    4330   0.96244355   -1315.1396   -22.554635    21859.245    3.1828602    27.960508 
    4340   0.95901142   -1315.1427    -24.71989    21860.637    3.1826575    27.961101 
    4350   0.95620817    -1315.146   -24.727811    21860.597    3.1826633    27.961084 
    4360    0.9540523   -1315.1495   -22.579349    21859.127    3.1828774    27.960457 
    4370    0.9525532   -1315.1529   -18.459872    21856.351    3.1832816    27.959274 
    4380   0.95171143   -1315.1561   -12.724151    21852.511     3.183841    27.957636 
    4390   0.95151884   -1315.1586    -5.867458     21847.94    3.1845072    27.955686 
    4400   0.95195876   -1315.1603    1.5154593    21843.035    3.1852223    27.953594 
    4410   0.95300599   -1315.1609    8.7807379    21838.224     3.185924    27.951542 
    4420   0.95462675   -1315.1607    15.291259    21833.926    3.1865511    27.949708 
    4430   0.95677871   -1315.1599    20.473274    21830.516    3.1870488    27.948253 
    4440     0.959411   -1315.1586    23.868509    21828.292    3.1873735    27.947304 
    4450    0.9624645   -1315.1572    25.176511    21827.449    3.1874966    27.946944 
    4460   0.96587244   -1315.1557      24.2827     21828.06    3.1874075    27.947205 
    4470   0.96956139   -1315.1541    21.269019    21830.072    3.1871137    27.948063 
    4480   0.97345282    -1315.152    16.405995     21833.31     3.186641    27.949445 
    4490   0.97746498   -1315.1493    10.127117    21837.494    3.1860305     27.95123 
    4500   0.98151515   -1315.1457    2.9884127     21842.26    3.1853353    27.953264 
    4510   0.98552201   -1315.1409   -4.3824098    21847.195    3.1846157    27.955369 
    4520    0.9894078   -1315.1351   -11.342065    21851.874    3.1839338    27.957364 
    4530   0.99310036   -1315.1285   -17.287721    21855.893    3.1833483    27.959078 
    4540   0.99653458   -1315.1214   -21.708143    21858.909    3.1829091    27.960364 
    4550   0.99965353   -1315.1141   -24.225979    21860.666    3.1826532    27.961114 
    4560    1.0024093   -1315.1067   -24.628296     21861.02    3.1826017    27.961265 
    4570    1.0047632   -1315.0995   -22.883475    21859.948    3.1827578    27.960807 
    4580    1.0066865   -1315.0922   -19.143532    21857.553    3.1831065    27.959786 
    4590    1.0081604   -1315.0847   -13.731741    21854.054    3.1836162    27.958294 
    4600    1.0091763   -1315.0766   -7.1163008    21849.764    3.1842412    27.956465 
    4610     1.009736   -1315.0678   0.12836866    21845.069    3.1849256    27.954462 
    4620     1.009852   -1315.0582    7.3701026    21840.388    3.1856083    27.952465 
    4630     1.009547   -1315.0479    13.973615    21836.138    3.1862283    27.950652 
    4640    1.0088544   -1315.0372    19.356724    21832.701    3.1867299    27.949185 
    4650    1.0078166   -1315.0264    23.043016    21830.386    3.1870679    27.948197 
    4660     1.006485   -1315.0159    24.705717    21829.403    3.1872113    27.947778 
    4670    1.0049179   -1315.0057    24.198142    21829.848    3.1871463    27.947968 
    4680    1.0031788   -1314.9958    21.567354     21831.69    3.1868774    27.948754 
    4690    1.0013343   -1314.9862    17.049528    21834.776    3.1864271    27.950071 
    4700   0.99945187   -1314.9766    11.047536    21838.844    3.1858335    27.951806 
    4710   0.99759696   -1314.9666    4.0932956    21843.547    3.1851476    27.953813 
    4720   0.99583093   -1314.9563   -3.2010373    21848.483    3.1844279    27.955918 
    4730   0.99420851   -1314.9456   -10.197994    21853.231    3.1837361    27.957943 
    4740   0.99277578   -1314.9346    -16.29057    21857.385    3.1831311    27.959714 
    4750   0.99156848   -1314.9238   -20.953958    21860.593     3.182664    27.961082 
    4760   0.99061071   -1314.9133   -23.789158    21862.585    3.1823739    27.961932 
    4770   0.98991416   -1314.9033   -24.555403    21863.198    3.1822847    27.962193 
    4780   0.98947784    -1314.894   -23.189339     21862.39    3.1824024    27.961848 
    4790    0.9892884   -1314.8852   -19.809882     21860.24    3.1827153    27.960932 
    4800   0.98932096   -1314.8766   -14.708506    21856.946    3.1831949    27.959528 
    4810   0.98954045   -1314.8679   -8.3255138    21852.806     3.183798    27.957762 
    4820   0.98990339   -1314.8588   -1.2137394     21848.19    3.1844707    27.955793 
    4830   0.99036007   -1314.8492     6.007927     21843.51    3.1851529    27.953797 
    4840   0.99085688    -1314.839    12.707781    21839.184    3.1857839    27.951952 
    4850   0.99133882   -1314.8284    18.296952    21835.598    3.1863071    27.950421 
    4860   0.99175193   -1314.8176    22.282443    21833.073    3.1866756    27.949344 
    4870   0.99204546   -1314.8069    24.312351    21831.837    3.1868559    27.948817 
    4880   0.99217383   -1314.7964    24.208559    21832.007    3.1868311    27.948889 
    4890   0.99209801   -1314.7859     21.98332    21833.575    3.1866023    27.949558 
    4900   0.99178652   -1314.7753    17.837891    21836.411    3.1861884    27.950769 
    4910   0.99121578   -1314.7643    12.143377    21840.275    3.1856247    27.952417 
    4920   0.99037005   -1314.7525    5.4059538    21844.838    3.1849594    27.954363 
    4930   0.98924086   -1314.7398   -1.7797275    21849.709    3.1842493    27.956441 
    4940   0.98782601   -1314.7261   -8.7841153    21854.474     3.183555    27.958473 
    4950   0.98612845   -1314.7115   -14.998094    21858.727    3.1829357    27.960287 
    4960   0.98415492   -1314.6962   -19.885154    21862.108    3.1824434    27.961728 
    4970   0.98191461   -1314.6805   -23.026188    21864.334    3.1821193    27.962677 
    4980   0.97941793   -1314.6645   -24.153696    21865.226    3.1819895    27.963058 
    4990   0.97667546   -1314.6484   -23.173178    21864.718    3.1820634    27.962841 
    5000    0.9736971   -1314.6321   -20.170493     21862.87    3.1823325    27.962053 
    5010   0.97049158   -1314.6153   -15.404769    21859.856    3.1827712    27.960768 
    5020   0.96706612   -1314.5977   -9.2873038    21855.956    3.1833392    27.959105 
    5030   0.96342645    -1314.579   -2.3477189    21851.523    3.1839849    27.957215 
    5040   0.95957696   -1314.5592    4.8104236    21846.961    3.1846498    27.955269 
    5050   0.95552111   -1314.5382    11.561338    21842.684    3.1852734    27.953445 
    5060   0.95126199   -1314.5162    17.311906    21839.081    3.1857989    27.951908 
    5070   0.94680294   -1314.4935    21.554874    21836.483     3.186178    27.950799 
    5080   0.94214832   -1314.4703    23.915207    21835.133     3.186375    27.950223 
    5090   0.93730432   -1314.4469    24.184836    21835.166    3.1863701    27.950237 
    5100   0.93227977   -1314.4233    22.342015    21836.596    3.1861614    27.950847 
    5110   0.92708688   -1314.3994    18.553161    21839.315    3.1857647    27.952008 
    5120   0.92174181    -1314.375    13.156965    21843.104    3.1852121    27.953624 
    5130   0.91626501   -1314.3499     6.632588     21847.65    3.1845493    27.955563 
    5140   0.91068126   -1314.3238  -0.44457345    21852.576    3.1838315    27.957664 
    5150   0.90501942   -1314.2969   -7.4549084    21857.472    3.1831184    27.959752 
    5160   0.89931182   -1314.2692   -13.789281    21861.932     3.182469    27.961653 
    5170   0.89359352   -1314.2411   -18.901431     21865.59    3.1819366    27.963213 
    5180   0.88790152   -1314.2129   -22.353782    21868.149    3.1815642    27.964304 
    5190   0.88227399   -1314.1848   -23.853281    21869.412    3.1813805    27.964842 
    5200   0.87675089   -1314.1326   -23.123746    21869.291     3.181398     27.96479 
    5210   0.87138959   -1314.1053   -20.527616    21867.828    3.1816109    27.964167 
    5220   0.86620711   -1314.0783   -16.145044    21865.178    3.1819965    27.963037 
    5230   0.86124404   -1314.0513   -10.355436    21861.597    3.1825177     27.96151 
    5240   0.85654263   -1314.0242   -3.6608643    21857.422    3.1831257     27.95973 
    5250   0.85214736   -1313.9968    3.3558969    21853.041    3.1837638    27.957862 
    5260   0.84810549   -1313.9693     10.08111    21848.861    3.1843729    27.956079 
    5270   0.84446732   -1313.9419    15.923671    21845.269    3.1848964    27.954548 
    5280   0.84128624   -1313.9148    20.367873    21842.603    3.1852851     27.95341 
    5290   0.83861837   -1313.8885    23.020335    21841.118    3.1855018    27.952777 
    5300   0.83652194   -1313.8632    23.646305    21840.965    3.1855241    27.952711 
    5310   0.83505629    -1313.839    22.191461    21842.178    3.1853471    27.953229 
    5320   0.83428078    -1313.816    18.786805    21844.673    3.1849834    27.954293 
    5330   0.83428611   -1313.7449    14.035361    21848.253    3.1844615     27.95582 
    5340   0.83513344   -1313.7237    7.7612655    21852.638    3.1838224    27.957691 
    5350   0.83683097   -1313.6787   0.96700913    21857.469    3.1831188     27.95975 
    5360   0.83945567   -1313.6343   -5.9047272    21862.351    3.1824079    27.961832 
    5370   0.84301282   -1313.6154   -12.406369    21866.887    3.1817478    27.963766 
    5380   0.84752887   -1313.5974   -17.825813      21870.7    3.1811931    27.965391 
    5390   0.85304742   -1313.5563   -21.551641    21873.479     3.180789    27.966575 
    5400   0.85959089   -1313.4923   -23.268315    21875.008    3.1805666    27.967227 
    5410   0.86717169   -1313.4548   -23.129347    21875.187    3.1805406    27.967303 
    5420   0.87575476   -1313.4684   -21.301558    21874.024    3.1807097    27.966808 
    5430   0.88533191   -1313.4592   -17.494854    21871.631    3.1810577    27.965788 
    5440   0.89589735   -1313.4271   -12.040768    21868.231    3.1815523    27.964339 
    5450   0.90739689   -1313.3963   -5.5578781    21864.139    3.1821478    27.962594 
    5460   0.91982263   -1313.3914    1.2449782    21859.727      3.18279    27.960713 
    5470   0.93306396   -1313.3875    7.9197279    21855.393    3.1834211    27.958865 
    5480    0.9470608   -1313.4095    13.732672    21851.523    3.1839849    27.957215 
    5490   0.96172096   -1313.4083    18.471147    21848.453    3.1844323    27.955906 
    5500   0.97693314   -1313.4088    21.566614    21846.455    3.1847235    27.955054 
    5510    0.9925832   -1313.4358    22.600545    21845.703    3.1848332    27.954733 
    5520    1.0085291   -1313.4401    21.779614    21846.259    3.1847522     27.95497 
    5530    1.0246117   -1313.4462    19.027741    21848.072    3.1844878    27.955743 
    5540    1.0406507   -1313.4539    14.591457    21850.984    3.1840634    27.956985 
    5550    1.0564435    -1313.463    8.8653289    21854.737    3.1835167    27.958586 
    5560     1.071763   -1313.4732    2.3553517    21858.999     3.182896    27.960403 
    5570     1.086356   -1313.4843   -4.3671397    21863.393    3.1822563    27.962276 
    5580    1.0999533   -1313.4718   -10.567269    21867.531    3.1816541     27.96404 
    5590    1.1122448   -1313.4849   -16.007791    21871.052     3.181142    27.965541 
    5600    1.1229002   -1313.4992   -20.071401    21873.641    3.1807654    27.966644 
    5610    1.1316017    -1313.515   -22.411552    21875.064    3.1805584    27.967251 
    5620    1.1380698   -1313.5324    -22.83054    21875.187    3.1805405    27.967303 
    5630    1.1421195   -1313.5514   -21.295111    21873.987     3.180715    27.966792 
    5640    1.1437327   -1313.5718   -17.938697    21871.555    3.1810687    27.965755 
    5650    1.1431246   -1313.5934   -13.050276    21868.088    3.1815731    27.964278 
    5660    1.1407867   -1313.6404   -7.1973024    21863.867    3.1821873    27.962478 
    5670    1.1373594   -1313.6882  -0.73774005    21859.236    3.1828615    27.960504 
    5680    1.1335366    -1313.712    5.9162399    21854.571    3.1835409    27.958515 
    5690    1.1298881    -1313.761    11.885267    21850.256    3.1841696    27.956674 
    5700    1.1268146   -1313.7862    16.944059    21846.638    3.1846969    27.955131 
    5710    1.1244801    -1313.837    20.353975    21844.003    3.1850811    27.954007 
    5720    1.1228912   -1313.8643    22.113807    21842.548    3.1852932    27.953387 
    5730    1.1219867   -1313.9419    21.620187    21842.371    3.1853191    27.953311 
    5740    1.1217178   -1313.9962    19.366451    21843.446    3.1851623     27.95377 
    5750    1.1219058   -1314.0267    15.559125    21845.639    3.1848425    27.954705 
    5760    1.1224193   -1314.0579    10.388499     21848.73     3.184392    27.956024 
    5770    1.1231515   -1314.0892    4.3141026    21852.418    3.1838546    27.957596 
    5780     1.124016   -1314.1452   -2.2790125    21856.351    3.1832816    27.959274 
    5790    1.1250036   -1314.2012   -8.6639958     21860.15    3.1827285    27.960893 
    5800    1.1259839   -1314.2325   -14.132173    21863.443     3.182249    27.962298 
    5810    1.1268697   -1314.2638   -18.360728    21865.915    3.1818893    27.963351 
    5820    1.1275996   -1314.2953   -20.985716    21867.321    3.1816847    27.963951 
    5830    1.1281173   -1314.3269   -21.782309     21867.51    3.1816572    27.964031 
    5840    1.1283713   -1314.3588   -20.682912    21866.438    3.1818132    27.963574 
    5850    1.1283142   -1314.3906   -17.782444     21864.17    3.1821432    27.962607 
    5860    1.1279026   -1314.4221   -13.330494    21860.876    3.1826226    27.961203 
    5870    1.1270971   -1314.4529   -7.7108343    21856.817    3.1832137    27.959472 
    5880    1.1258629   -1314.4828   -1.4095966    21852.318    3.1838691    27.957554 
    5890    1.1241705   -1314.5116     5.025727    21847.746    3.1845354    27.955604 
    5900    1.1219966   -1314.5392    11.033393    21843.472    3.1851586    27.953781 
    5910    1.1193255   -1314.5658    16.086766    21839.842    3.1856879    27.952232 
    5920    1.1161492   -1314.5915    19.741518    21837.148     3.186081    27.951083 
    5930    1.1124692   -1314.6164    21.676106    21835.598    3.1863071    27.950422 
    5940    1.1082963   -1314.6407      21.7214    21835.302    3.1863502    27.950295 
    5950    1.1036509   -1314.6643    19.876295    21836.262    3.1862102    27.950705 
    5960    1.0985626   -1314.6871    16.307619    21838.368    3.1859029    27.951603 
    5970    1.0930691   -1314.7089    11.334341    21841.414    3.1854586    27.952903 
    5980    1.0872153   -1314.7295    5.3978556    21845.112    3.1849194     27.95448 
    5990    1.0810515   -1314.7488   -0.9784885    21849.117    3.1843355    27.956189 
    6000    1.0746316   -1314.7667   -7.2364516    21853.062    3.1837607    27.957871 
    6010    1.0680109   -1314.7834   -12.832007    21856.583    3.1832478    27.959373 
    6020     1.061245    -1314.799   -17.282095    21859.359    3.1828436    27.960556 
    6030    1.0543874   -1314.8139   -20.205197    21861.131    3.1825856    27.961312 
    6040    1.0474888   -1314.8282    -21.35272    21861.731    3.1824982    27.961568 
    6050    1.0405957   -1314.8421   -20.629061    21861.095    3.1825908    27.961297 
    6060    1.0337504   -1314.8555   -18.099122    21859.267     3.182857    27.960517 
    6070    1.0269904   -1314.8683    -13.98283    21856.394    3.1832753    27.959292 
    6080    1.0203493   -1314.8803   -8.6370265    21852.718    3.1838108    27.957725 
    6090    1.0138569   -1314.8914   -2.5258705    21848.549    3.1844184    27.955946 
    6100    1.0075403   -1314.9013    3.8182427    21844.241    3.1850464    27.954109 
    6110    1.0014252   -1314.9102    9.8403668    21840.161    3.1856414    27.952368 
    6120   0.99553664   -1314.9183    15.011605    21836.657    3.1861526    27.950873 
    6130   0.98990031   -1314.9256    18.876343    21834.025    3.1865366     27.94975 
    6140   0.98454334   -1314.9325     21.09362    21832.487     3.186761    27.949094 
    6150   0.97949505   -1314.9392    21.468457     21832.17    3.1868074    27.948959 
    6160   0.97478738   -1314.9457    19.969833    21833.093    3.1866727    27.949353 
    6170   0.97045502   -1314.9518    16.733359    21835.168    3.1863699    27.950238 
    6180   0.96653517   -1314.9576    12.048383    21838.206    3.1859265    27.951534 
    6190   0.96306703   -1314.9627    6.3309415    21841.937    3.1853823    27.953126 
    6200   0.96009101    -1314.967  0.085486968    21846.029    3.1847856    27.954872 
    6210   0.95764766   -1314.9705   -6.1406491    21850.122    3.1841892    27.956617 
    6220   0.95577632   -1314.9733   -11.805618    21853.854    3.1836453    27.958209 
    6230   0.95451366   -1314.9757   -16.419839    21856.899    3.1832018    27.959507 
    6240   0.95389199   -1314.9778    -19.58732     21858.99    3.1828973    27.960399 
    6250   0.95393748   -1314.9798   -21.038372    21859.945    3.1827582    27.960806 
    6260   0.95466814    -1314.982   -20.651472    21859.682    3.1827965    27.960694 
    6270   0.95609192   -1314.9842   -18.462893    21858.225    3.1830087    27.960073 
    6280   0.95820468   -1314.9864   -14.663527    21855.702    3.1833762    27.958997 
    6290    0.9609884   -1314.9884   -9.5831331    21852.335    3.1838666    27.957561 
    6300   0.96440975   -1314.9899   -3.6630025     21848.42    3.1844371    27.955892 
    6310   0.96841924   -1314.9909    2.5811172    21844.301    3.1850376    27.954135 
    6320   0.97295127   -1314.9913    8.6031467    21840.338    3.1856155    27.952444 
    6330   0.97792514   -1314.9912    13.874332    21836.879    3.1861202    27.950968 
    6340   0.98324718    -1314.991    17.930294    21834.227    3.1865071    27.949837 
    6350   0.98881388   -1314.9907    20.413063    21832.615    3.1867424    27.949149 
    6360   0.99451564   -1314.9906    21.103881    21832.184    3.1868053    27.948965 
    6370    1.0002407   -1314.9906    19.943358    21832.972    3.1866903    27.949301 
    6380     1.005879   -1314.9908    17.036799    21834.911    3.1864073    27.950128 
    6390    1.0113249    -1314.991    12.644133    21837.831    3.1859813    27.951374 
    6400    1.0164801    -1314.991    7.1555785    21841.477    3.1854494     27.95293 
    6410    1.0212542   -1314.9906    1.0556644    21845.532    3.1848581     27.95466 
    6420    1.0255654   -1314.9898   -5.1206361    21849.644    3.1842588    27.956413 
    6430    1.0293407   -1314.9886   -10.835338    21853.454    3.1837036    27.958038 
    6440    1.0325151   -1314.9871   -15.594077    21856.632    3.1832407    27.959394 
    6450    1.0350315   -1314.9858   -18.987994    21858.904    3.1829098    27.960362 
    6460    1.0368406   -1314.9846   -20.727635    21860.075    3.1827394    27.960861 
    6470    1.0379008   -1314.9837   -20.666497    21860.044    3.1827438    27.960848 
    6480    1.0381797   -1314.9832   -18.812684    21858.818    3.1829223    27.960326 
    6490    1.0376551   -1314.9829   -15.328002    21856.506     3.183259     27.95934 
    6500    1.0363174   -1314.9826   -10.514553    21853.312    3.1837243    27.957978 
    6510    1.0341713    -1314.982   -4.7897047    21849.515    3.1842775    27.956359 
    6520    1.0312384    -1314.981    1.3489093    21845.449    3.1848703    27.954624 
    6530    1.0275587   -1314.9795    7.3658271    21841.468    3.1854508    27.952926 
    6540    1.0231918   -1314.9777    12.734314     21837.92    3.1859683    27.951412 
    6550    1.0182162   -1314.9756    16.983045    21835.113    3.1863778    27.950215 
    6560    1.0127275   -1314.9735    19.738592    21833.293    3.1866435    27.949438 
    6570    1.0068357   -1314.9714    20.759531    21832.615    3.1867425    27.949149 
    6580    1.0006606   -1314.9695    19.958619    21833.136    3.1866664    27.949371 
    6590   0.99432725   -1314.9677    17.410688    21834.809    3.1864222    27.950085 
    6600   0.98796138   -1314.9658    13.345397    21837.486    3.1860316    27.951227 
    6610   0.98168559   -1314.9636    8.1256631    21840.929    3.1855293    27.952696 
    6620   0.97561634   -1314.9609    2.2141104    21844.837    3.1849594    27.954363 
    6630    0.9698622   -1314.9576   -3.8689532    21848.869    3.1843718    27.956083 
    6640   0.96452306   -1314.9538   -9.5918467    21852.671    3.1838177    27.957704 
    6650   0.95969009   -1314.9495   -14.457802    21855.913    3.1833454    27.959087 
    6660   0.95544607    -1314.945   -18.047247    21858.315    3.1829956    27.960111 
    6670   0.95186565   -1314.9404   -20.052754    21859.669    3.1827985    27.960688 
    6680   0.94901516   -1314.9358   -20.304154    21859.861    3.1827705     27.96077 
    6690   0.94695148   -1314.9313   -18.782167    21858.878    3.1829136    27.960351 
    6700   0.94571944   -1314.9268   -15.619721    21856.811    3.1832147     27.95947 
    6710   0.94534754    -1314.922   -11.090896    21853.844    3.1836468    27.958205 
    6720   0.94584159   -1314.9166   -5.5882232    21850.241    3.1841717    27.956668 
    6730   0.94717694   -1314.9106   0.41016063    21846.322    3.1847429    27.954997 
    6740   0.94929036   -1314.9039    6.3811662    21842.435    3.1853097    27.953338 
    6750   0.95207415   -1314.8964    11.802068    21838.923    3.1858219     27.95184 
    6760   0.95537539   -1314.8883    16.196669      21836.1    3.1862338    27.950636 
    6770   0.95900308   -1314.8798    19.178098    21834.218    3.1865085    27.949833 
    6780   0.96274387   -1314.8711    20.484087    21833.445    3.1866212    27.949503 
    6790   0.96638372   -1314.8621    20.001077    21833.857    3.1865611    27.949679 
    6800   0.96973052   -1314.8529    17.774609    21835.424    3.1863325    27.950347 
    6810   0.97263177   -1314.8434    14.004851    21838.014    3.1859545    27.951452 
    6820     0.974984   -1314.8333     9.027773     21841.41    3.1854592    27.952901 
    6830   0.97673325   -1314.8224    3.2840167    21845.322    3.1848887     27.95457 
    6840   0.97786913   -1314.8108   -2.7212582    21849.419    3.1842915    27.956318 
    6850   0.97841542   -1314.7984   -8.4635142    21853.353    3.1837183    27.957995 
    6860   0.97842011   -1314.7853     -13.4447    21856.792    3.1832174    27.959462 
    6870   0.97794637   -1314.7718   -17.235829    21859.448    3.1828306    27.960594 
    6880   0.97706539   -1314.7581   -19.512869    21861.103    3.1825896      27.9613 
    6890   0.97585097   -1314.7443   -20.083304    21861.627    3.1825134    27.961523 
    6900   0.97437571   -1314.7307   -18.901621    21860.988    3.1826064    27.961251 
    6910   0.97270843    -1314.717   -16.072729    21859.256    3.1828585    27.960512 
    6920   0.97091254   -1314.7033   -11.843159    21856.598    3.1832456    27.959379 
    6930   0.96904498   -1314.6892   -6.5806001    21853.261    3.1837317    27.957956 
    6940   0.96715582   -1314.6748  -0.74314723    21849.549    3.1842726    27.956373 
    6950   0.96528814     -1314.66    5.1595812    21845.802    3.1848187    27.954775 
    6960   0.96347824   -1314.6447    10.610472    21842.361    3.1853205    27.953307 
    6970   0.96175621   -1314.6293    15.130433    21839.539    3.1857321    27.952103 
    6980   0.96014665    -1314.614    18.321295    21837.596    3.1860155    27.951274 
    6990   0.95866975   -1314.5989    19.901969    21836.715     3.186144    27.950898 
    7000   0.95734249   -1314.5842    19.734189    21836.985    3.1861046    27.951014 
    7010   0.95617988     -1314.57     17.83512    21838.395     3.185899    27.951615 
    7020   0.95519623   -1314.5561    14.375503    21840.832    3.1855435    27.952655 
    7030   0.95440622   -1314.5425    9.6635366    21844.096    3.1850675    27.954047 
    7040    0.9538256    -1314.529    4.1162754    21847.914    3.1845109    27.955676 
    7050   0.95347159   -1314.5155    -1.778452    21851.964    3.1839207    27.957403 
    7060   0.95336274    -1314.502   -7.5057417    21855.905    3.1833466    27.959084 
    7070    0.9535184   -1314.4888   -12.568775    21859.406    3.1828367    27.960576 
    7080   0.95395794    -1314.476   -16.531442    21862.175    3.1824336    27.961757 
    7090   0.95469969   -1314.4638    -19.05495    21863.982    3.1821705    27.962527 
    7100   0.95575986   -1314.4524   -19.925704    21864.684    3.1820684    27.962827 
    7110   0.95715158   -1314.4419   -19.072548    21864.232    3.1821342    27.962634 
    7120     0.958884   -1314.4323   -16.572273    21862.677    3.1823606    27.961971 
    7130   0.96096168   -1314.4235   -12.643094    21860.165    3.1827262      27.9609 
    7140    0.9633842   -1314.4153   -7.6265198    21856.928    3.1831976     27.95952 
    7150   0.96614596   -1314.4075   -1.9588165    21853.256    3.1837325    27.957954 
    7160   0.96923619      -1314.4    3.8659243    21849.478     3.184283    27.956343 
    7170   0.97263912    -1314.393    9.3383348    21845.931       3.1848     27.95483 
    7180   0.97633415   -1314.3864    13.978439    21842.931    3.1852374     27.95355 
    7190   0.98029619   -1314.3806    17.378473    21840.744    3.1855563    27.952617 
    7200   0.98449586   -1314.3755    19.239791    21839.566    3.1857282    27.952115 
    7210   0.98889981   -1314.3715    19.400143    21839.501    3.1857376    27.952087 
    7220   0.99347086   -1314.3684    17.848481    21840.557    3.1855836    27.952537 
    7230   0.99816813   -1314.3661    14.725723    21842.642    3.1852795    27.953427 
    7240    1.0029471   -1314.3646    10.311396    21845.575    3.1848519    27.954678 
    7250    1.0077597   -1314.3635    4.9976419    21849.099    3.1843382    27.956181 
    7260    1.0125539   -1314.3627  -0.74668112    21852.906    3.1837834    27.957805 
    7270    1.0172737   -1314.3622   -6.4181345    21856.665    3.1832359    27.959407 
    7280     1.021859    -1314.362   -11.523024    21860.046    3.1827436    27.960849 
    7290    1.0262449   -1314.3622    -15.61994    21862.755    3.1823492    27.962004 
    7300    1.0303617    -1314.363   -18.356979    21864.556    3.1820871    27.962772 
    7310    1.0341343   -1314.3646   -19.500842    21865.291    3.1819801    27.963085 
    7320    1.0374826   -1314.3668   -18.955769    21864.897    3.1820375    27.962917 
    7330    1.0403211   -1314.3697   -16.771083    21863.406    3.1822544    27.962282 
    7340    1.0425596   -1314.3732   -13.136922    21860.948    3.1826122    27.961234 
    7350    1.0441049   -1314.3768   -8.3684182    21857.735    3.1830801    27.959864 
    7360     1.044863   -1314.3805   -2.8794003    21854.045    3.1836175     27.95829 
    7370    1.0447435   -1314.3842    2.8525681    21850.196    3.1841783    27.956649 
    7380    1.0436664   -1314.3876     8.327201     21846.52    3.1847141    27.955081 
    7390    1.0415722    -1314.391    13.065233    21843.334    3.1851787    27.953722 
    7400    1.0384358   -1314.3944    16.651066    21840.908    3.1855324    27.952687 
    7410    1.0342827    -1314.398    18.770316     21839.45    3.1857451    27.952065 
    7420    1.0292053   -1314.4019    19.238513    21839.078    3.1857993    27.951906 
    7430    1.0233736   -1314.4061    18.017986    21839.818    3.1856913    27.952222 
    7440    1.0170336   -1314.4106    15.221113    21841.598    3.1854317    27.952982 
    7450    1.0104876    -1314.415    11.099587    21844.255    3.1850443    27.954115 
    7460    1.0040586   -1314.4194    6.0208885    21847.548    3.1845642     27.95552 
    7470   0.99804697   -1314.4234   0.43447314    21851.185    3.1840343    27.957071 
    7480   0.99269236   -1314.4271   -5.1688238     21854.84    3.1835017    27.958629 
    7490   0.98815145   -1314.4305   -10.300198    21858.191    3.1830137    27.960058 
    7500   0.98449495   -1314.4337   -14.515151     21860.94    3.1826134     27.96123 
    7510   0.98171905   -1314.4369   -17.451094    21862.844    3.1823362    27.962042 
    7520   0.97976419   -1314.4401   -18.857387    21863.736    3.1822064    27.962422 
    7530   0.97853447   -1314.4434   -18.615703    21863.535    3.1822356    27.962337 
    7540   0.97791392   -1314.4468   -16.749403    21862.257    3.1824216    27.961792 
    7550   0.97777837     -1314.45    -13.42133    21860.013    3.1827483    27.960835 
    7560   0.97800333   -1314.4528   -8.9202011    21856.998    3.1831874     27.95955 
    7570    0.9784689    -1314.455   -3.6365062    21853.473    3.1837008    27.958047 
    7580   0.97906288   -1314.4565    1.9704316    21849.746    3.1842439    27.956457 
    7590   0.97968282    -1314.457    7.4117878    21846.141    3.1847693    27.954919 
    7600   0.98023766   -1314.4567    12.211818    21842.972    3.1852313    27.953568 
    7610   0.98064917   -1314.4556    15.950006    21840.516    3.1855896     27.95252 
    7620   0.98085321   -1314.4539    18.298872    21838.986    3.1858127    27.951867 
    7630   0.98080093   -1314.4515    19.053729    21838.516    3.1858813    27.951667 
    7640   0.98045962   -1314.4486    18.151332    21839.148    3.1857891    27.951936 
    7650   0.97981321    -1314.445    15.675462    21840.827    3.1855442    27.952653 
    7660   0.97886224   -1314.4406    11.848864    21843.409    3.1851677    27.953754 
    7670   0.97762329   -1314.4352    7.0124211    21846.671    3.1846922    27.955145 
    7680   0.97612769   -1314.4286    1.5937979    21850.332    3.1841585    27.956707 
    7690   0.97441957   -1314.4209   -3.9312394     21854.08    3.1836124    27.958305 
    7700   0.97255304    -1314.412   -9.0810231    21857.594    3.1831006    27.959804 
    7710   0.97058843   -1314.4021   -13.409832    21860.577    3.1826663    27.961075 
    7720   0.96858728   -1314.3914   -16.545812    21862.779    3.1823457    27.962014 
    7730   0.96660591   -1314.3801   -18.221986    21864.019    3.1821652    27.962543 
    7740   0.96468732   -1314.3684   -18.298111    21864.203    3.1821385    27.962621 
    7750    0.9628517   -1314.3564   -16.771922    21863.328    3.1822658    27.962248 
    7760   0.96108659   -1314.3439   -13.779046    21861.484    3.1825342    27.961462 
    7770   0.95933896   -1314.3311   -9.5816317    21858.847     3.182918    27.960338 
    7780   0.95751334   -1314.3176   -4.5464446    21855.663    3.1833819     27.95898 
    7790    0.9554809   -1314.3037   0.88608234    21852.222     3.183883    27.957513 
    7800   0.95310329   -1314.2892    6.2395663    21848.841    3.1843758    27.956071 
    7810   0.95027076   -1314.2745    11.043188    21845.828     3.184815    27.954786 
    7820   0.94694591   -1314.2597    14.873432     21843.46    3.1851603    27.953776 
    7830   0.94319611   -1314.2451    17.392181    21841.956    3.1853796    27.953134 
    7840   0.93919776    -1314.231    18.377418     21841.46    3.1854519    27.952923 
    7850   0.93520885   -1314.2177    17.743403    21842.027    3.1853693    27.953164 
    7860   0.93152498   -1314.2052    15.548255    21843.617    3.1851373    27.953843 
    7870   0.92843966   -1314.1935    11.988205    21846.104    3.1847748    27.954903 
    7880   0.92621879   -1314.1826    7.3791825    21849.278    3.1843121    27.956257 
    7890   0.92508703   -1314.1724    2.1277063    21852.873    3.1837882    27.957791 
    7900   0.92522024   -1314.1631   -3.3059528    21856.585    3.1832475    27.959373 
    7910    0.9267398   -1314.1546   -8.4486996    21860.099    3.1827359    27.960872 
    7920   0.92970818   -1314.1473   -12.855841    21863.117    3.1822964    27.962159 
    7930   0.93412674   -1314.1412   -16.149038    21865.386    3.1819662    27.963126 
    7940   0.93993798   -1314.1367   -18.047945    21866.716    3.1817727    27.963693 
    7950   0.94703361   -1314.1338     -18.3932    21866.999    3.1817315    27.963813 
    7960   0.95526799   -1314.1327   -17.159201    21866.217    3.1818453     27.96348 
    7970   0.96447456   -1314.1331   -14.455864    21864.443    3.1821034    27.962724 
    7980   0.97448091   -1314.1351   -10.519297    21861.837    3.1824828    27.961613 
    7990   0.98511928   -1314.1384   -5.6920329    21858.629    3.1829499    27.960245 
    8000   0.99623068   -1314.1429  -0.39419874    21855.098    3.1834641     27.95874 
    8010    1.0076635   -1314.1484    4.9122842    21851.553    3.1839805    27.957228 
    8020    1.0192685    -1314.155    9.7636708    21848.301    3.1844546     27.95584 
    8030    1.0308926   -1314.1628    13.735172    21845.619    3.1848454    27.954697 
    8040    1.0423733   -1314.1717    16.478866    21843.738    3.1851197    27.953894 
    8050    1.0535336    -1314.182    17.755099    21842.813    3.1852546      27.9535 
    8060    1.0641788   -1314.1936    17.454234    21842.916    3.1852396    27.953544 
    8070    1.0740952   -1314.2065    15.606486    21844.026    3.1850777    27.954017 
    8080    1.0830508   -1314.2204    12.378815    21846.037    3.1847845    27.954875 
    8090    1.0908008   -1314.2352    8.0592597    21848.759    3.1843878    27.956036 
    8100    1.0971027   -1314.2507    3.0303705    21851.941     3.183924    27.957393 
    8110    1.1017461   -1314.2668   -2.2654532    21855.293    3.1834357    27.958823 
    8120    1.1046049   -1314.2834   -7.3652798    21858.508    3.1829676    27.960193 
    8130    1.1057117   -1314.3006   -11.825918     21861.29    3.1825625     27.96138 
    8140    1.1053324   -1314.3185   -15.261674    21863.383    3.1822578    27.962272 
    8150    1.1039951   -1314.3373   -17.376676    21864.588    3.1820823    27.962786 
    8160    1.1024135    -1314.357   -17.989501    21864.786    3.1820536     27.96287 
    8170    1.1013046   -1314.3777   -17.048386    21863.942    3.1821763     27.96251 
    8180     1.101183   -1314.3993    -14.63577    21862.115    3.1824424    27.961731 
    8190    1.1022497   -1314.4218   -10.961523    21859.445    3.1828311    27.960593 
    8200    1.1044167   -1314.4448   -6.3452329    21856.147    3.1833113    27.959187 
    8210    1.1074131   -1314.4682   -1.1889485     21852.49     3.183844    27.957627 
    8220    1.1108967   -1314.4919     4.057401    21848.774    3.1843855    27.956042 
    8230    1.1145328   -1314.5159    8.9351186    21845.301    3.1848918    27.954561 
    8240    1.1180379   -1314.5401    13.017126    21842.353    3.1853217    27.953304 
    8250       1.1212   -1314.5647     15.94606    21840.164     3.185641     27.95237 
    8260    1.1238848   -1314.5897    17.466492    21838.901    3.1858252    27.951831 
    8270    1.1260306   -1314.6151    17.448077    21838.649    3.1858619    27.951723 
    8280    1.1276332   -1314.6408    15.897252    21839.406    3.1857515    27.952046 
    8290    1.1287239   -1314.6665    12.956275    21841.079    3.1855075     27.95276 
    8300    1.1293458   -1314.6922    8.8897419    21843.497    3.1851548    27.953792 
    8310    1.1295343   -1314.7175    4.0600422    21846.425     3.184728     27.95504 
    8320    1.1293062   -1314.7422   -1.1056863    21849.581    3.1842679    27.956387 
    8330    1.1286578   -1314.7663   -6.1537976    21852.667    3.1838182    27.957703 
    8340    1.1275698   -1314.7898   -10.643965    21855.392    3.1834213    27.958865 
    8350    1.1260157   -1314.8126   -14.187071    21857.496    3.1831149    27.959762 
    8360    1.1239688   -1314.8348   -16.478041    21858.775    3.1829286    27.960307 
    8370     1.121408   -1314.8566   -17.321121    21859.099    3.1828815    27.960445 
    8380    1.1183201   -1314.8779   -16.645813     21858.42    3.1829803    27.960156 
    8390    1.1147009   -1314.8985   -14.512403    21856.781     3.183219    27.959457 
    8400    1.1105538   -1314.9184   -11.106747    21854.307    3.1835794    27.958402 
    8410    1.1058893   -1314.9372   -6.7246802    21851.197    3.1840324    27.957076 
    8420    1.1007238   -1314.9549   -1.7471284    21847.706    3.1845411    27.955587 
    8430    1.0950788   -1314.9714    3.3922853    21844.124    3.1850634    27.954059 
    8440    1.0889817   -1314.9865    8.2446451    21840.746     3.185556    27.952618 
    8450    1.0824654   -1315.0005    12.385073    21837.854     3.185978    27.951384 
    8460    1.0755691   -1315.0133     15.45051    21835.683    3.1862947    27.950458 
    8470    1.0683387   -1315.0253    17.172396     21834.41    3.1864805    27.949915 
    8480    1.0608265   -1315.0365    17.401027    21834.131    3.1865212    27.949796 
    8490    1.0530912   -1315.0468    16.119105    21834.857    3.1864152    27.950105 
    8500     1.045197   -1315.0564    13.443057    21836.512    3.1861736    27.950812 
    8510    1.0372126   -1315.0651    9.6120314    21838.941    3.1858194    27.951848 
    8520    1.0292099   -1315.0729    4.9657275    21841.919     3.185385    27.953118 
    8530    1.0212625   -1315.0797 -0.086605412    21845.178    3.1849097    27.954509 
    8540    1.0134442   -1315.0854    -5.102897    21848.426    3.1844363    27.955894 
    8550    1.0058274   -1315.0903   -9.6471965    21851.372    3.1840069     27.95715 
    8560   0.99848171   -1315.0946   -13.327326    21853.755    3.1836598    27.958167 
    8570    0.9914732   -1315.0983   -15.828097    21855.362    3.1834257    27.958852 
    8580   0.98486316   -1315.1018   -16.937506    21856.051    3.1833254    27.959146 
    8590   0.97870774    -1315.105   -16.564034    21855.759    3.1833679    27.959021 
    8600    0.9730576   -1315.1081   -14.743869     21854.51    3.1835497    27.958489 
    8610   0.96795793    -1315.111   -11.637622    21852.413    3.1838553    27.957594 
    8620    0.9634486   -1315.1135   -7.5167642    21849.648    3.1842582    27.956415 
    8630   0.95956444   -1315.1156    -2.740747    21846.456    3.1847234    27.955054 
    8640   0.95633559   -1315.1172    2.2735549    21843.114    3.1852106    27.953628 
    8650   0.95378773   -1315.1183    7.0877419    21839.913    3.1856776    27.952262 
    8660   0.95194213   -1315.1189    11.280199    21837.128    3.1860838    27.951075 
    8670   0.95081537   -1315.1193    14.483469    21835.002     3.186394    27.950167 
    8680   0.95041852   -1315.1195    16.417224    21833.718    3.1865815    27.949619 
    8690   0.95075576   -1315.1196     16.91361    21833.384    3.1866302    27.949477 
    8700   0.95182224   -1315.1196    15.932405    21834.027    3.1865363    27.949751 
    8710   0.95360117   -1315.1194    13.564421    21835.588    3.1863085    27.950418 
    8720   0.95606041    -1315.119    10.022815     21837.93    3.1859669    27.951416 
    8730   0.95914872    -1315.118    5.6232489    21840.844    3.1855417     27.95266 
    8740   0.96279256   -1315.1164   0.75497238    21844.078    3.1850701    27.954039 
    8750   0.96689408   -1315.1142   -4.1542417    21847.348    3.1845934    27.955434 
    8760   0.97133124   -1315.1111    -8.675937    21850.372    3.1841527    27.956724 
    8770   0.97596084   -1315.1075   -12.418143    21852.887    3.1837862    27.957797 
    8780   0.98062434   -1315.1032   -15.058721    21854.679    3.1835251    27.958561 
    8790   0.98515617   -1315.0984   -16.372259    21855.597    3.1833914    27.958952 
    8800   0.98939308   -1315.0932   -16.248542    21855.567    3.1833959    27.958939 
    8810   0.99318323   -1315.0874   -14.701348    21854.597    3.1835371    27.958526 
    8820   0.99639381    -1315.081   -11.866998    21852.781    3.1838017    27.957751 
    8830   0.99891639   -1315.0738   -7.9927979    21850.283    3.1841656    27.956686 
    8840    1.0006699   -1315.0656   -3.4161832     21847.33     3.184596    27.955427 
    8850    1.0016018   -1315.0563    1.4639322    21844.188     3.185054    27.954086 
    8860    1.0016875   -1315.0459    6.2214338    21841.139    3.1854987    27.952786 
    8870    1.0009291   -1315.0345    10.440139    21838.458    3.1858898    27.951642 
    8880   0.99935374   -1315.0221    13.750579    21836.386    3.1861921    27.950758 
    8890   0.99701065   -1315.0089    15.863054    21835.114    3.1863777    27.950215 
    8900   0.99396873    -1314.995    16.593769     21834.76    3.1864293    27.950064 
    8910   0.99031311   -1314.9804    15.881429    21835.366     3.186341    27.950322 
    8920   0.98614135   -1314.9652    13.792592    21836.887    3.1861191    27.950971 
    8930   0.98155899   -1314.9493    10.515236      21839.2    3.1857815    27.951959 
    8940   0.97667454   -1314.9326    6.3412358    21842.116    3.1853562    27.953203 
    8950   0.97159402    -1314.915    1.6395972    21845.392    3.1848785      27.9546 
    8960   0.96641498   -1314.8966   -3.1768508    21848.755    3.1843883    27.956034 
    8970   0.96122051   -1314.8774   -7.6880675    21851.928     3.183926    27.957387 
    8980   0.95607351   -1314.8574    -11.50336    21854.649    3.1835296    27.958548 
[...]
   37860    114.99191   -1032.9765    10245.799    19282.647    3.6081624    26.815684 
   37870    113.88807    -1032.155     10248.87    19284.648     3.607788    26.816612 
   37880    113.22176   -1031.8248    10245.549    19286.733    3.6073978    26.817578 
   37890    113.06212   -1032.0389    10234.525    19288.902    3.6069922    26.818584 
   37900    113.44174   -1032.7711    10215.437     19291.15    3.6065719    26.819625 
   37910    114.35142   -1034.3029    10186.225    19293.469    3.6061385      26.8207 
   37920    115.74112   -1036.3679    10149.092    19295.848    3.6056939    26.821802 
   37930    117.52157   -1039.0408    10104.256    19298.272     3.605241    26.822925 
   37940    119.56858   -1041.8859    10055.862    19300.724    3.6047828    26.824062 
   37950    121.72166   -1044.9369    10005.057    19303.187    3.6043229    26.825203 
   37960    123.79665    -1047.927    9955.2788    19305.642    3.6038647    26.826339 
   37970    125.60109   -1050.5292    9910.4357    19308.068    3.6034118    26.827463 
   37980    126.95545   -1052.6764    9872.4996     19310.45    3.6029672    26.828566 
   37990    127.71571    -1054.172    9844.0374    19312.774    3.6025337    26.829643 
   38000    127.79161   -1054.9567    9826.1857    19315.029    3.6021131    26.830687 
   38010    127.16074   -1055.0033    9819.2813    19317.209    3.6017067    26.831696 
   38020    125.87437   -1054.0523    9824.6639     19319.31    3.6013149    26.832669 
   38030    124.05478   -1052.4924    9838.5737    19321.337    3.6009372    26.833607 
   38040    121.88531   -1050.6611    9857.1394    19323.294    3.6005725    26.834513 
   38050     119.5887   -1048.6231    9878.1076    19325.187    3.6002197     26.83539 
   38060    117.39535   -1046.7958    9896.7324    19327.027    3.5998771    26.836241 
   38070    115.50708    -1045.241    9910.9676    19328.819    3.5995433     26.83707 
   38080     114.0724   -1044.2011    9917.9886    19330.569    3.5992175     26.83788 
   38090    113.16452   -1043.7497    9916.7414     19332.28    3.5988989    26.838672 
   38100    112.78804   -1043.9722    9906.7172    19333.951    3.5985877    26.839446 
   38110     112.8912   -1044.6864    9889.7884     19335.58    3.5982846    26.840199 
   38120    113.38675   -1045.9852    9866.2752     19337.16    3.5979906     26.84093 
   38130    114.16785   -1047.4465    9840.2861    19338.682    3.5977075    26.841634 
   38140    115.12195   -1048.8633    9814.5236    19340.136    3.5974369    26.842307 
   38150    116.13438   -1050.2214    9790.3127    19341.514    3.5971806    26.842945 
   38160    117.10643   -1051.4781     9769.074    19342.807    3.5969402    26.843543 
   38170    117.96402   -1052.2285    9754.5545    19344.006    3.5967172    26.844098 
   38180    118.66267   -1052.8156    9745.0604    19345.107    3.5965125    26.844607 
   38190    119.18486   -1052.8998    9743.3987    19346.107    3.5963266    26.845069 
   38200    119.54144   -1052.4199    9750.2416    19347.005    3.5961597    26.845485 
   38210    119.75907   -1051.3069    9766.1028    19347.805     3.596011    26.845855 
   38220     119.8768   -1049.9072    9788.3835    19348.513    3.5958794    26.846182 
   38230     119.9413   -1048.1067    9817.4163    19349.138    3.5957633    26.846471 
   38240    119.99658   -1046.0226    9851.5882    19349.691    3.5956605    26.846727 
   38250    120.07347   -1043.8295    9888.5221    19350.186    3.5955686    26.846956 
   38260    120.18684   -1041.5775    9926.4109    19350.636    3.5954849    26.847164 
   38270    120.34327    -1039.398    9962.8378    19351.057    3.5954067    26.847359 
   38280    120.53962   -1037.4369    9995.5595    19351.462    3.5953315    26.847546 
   38290    120.75874   -1035.9674    10022.002    19351.863     3.595257    26.847731 
   38300    120.97052   -1034.6985    10044.145    19352.271    3.5951811     26.84792 
   38310    121.14032   -1033.7583    10061.464    19352.694    3.5951025    26.848116 
   38320    121.24594   -1032.8777     10076.27     19353.14    3.5950198    26.848322 
   38330     121.2951   -1032.2437    10087.529    19353.612    3.5949321     26.84854 
   38340     121.3222    -1031.595    10097.058    19354.116    3.5948385    26.848773 
   38350    121.37659   -1031.2411    10102.514    19354.654    3.5947385    26.849022 
   38360    121.50613   -1031.0068     10104.88    19355.229    3.5946317    26.849288 
   38370    121.74069   -1030.9946    10103.295    19355.842    3.5945179    26.849571 
   38380    122.08586   -1031.5002    10095.714    19356.492    3.5943973    26.849872 
   38390    122.52536   -1032.0075    10085.932    19357.175    3.5942704    26.850188 
   38400    123.02411   -1032.7891     10072.45    19357.888     3.594138    26.850517 
   38410    123.52557    -1033.623    10057.369    19358.625     3.594001    26.850858 
   38420    123.96138   -1034.3703    10042.371    19359.382    3.5938606    26.851208 
   38430    124.25145   -1035.3171    10026.249    19360.151    3.5937178    26.851564 
   38440    124.32107   -1036.0419    10012.657    19360.928    3.5935737    26.851923 
   38450    124.12276   -1036.2571    10004.113    19361.706    3.5934292    26.852282 
   38460    123.64927   -1036.3409    9998.1478    19362.483    3.5932851    26.852641 
   38470    122.94152   -1036.0232     9996.411    19363.256    3.5931416    26.852999 
   38480    122.07709   -1035.6205    9996.1536    19364.024     3.592999    26.853354 
   38490    121.15017   -1035.2237    9996.0666    19364.788    3.5928573    26.853707 
   38500    120.24847   -1035.0832     9993.825    19365.547    3.5927164    26.854058 
   38510    119.43175   -1034.9663    9990.7181    19366.301    3.5925766    26.854407 
   38520    118.71824   -1034.8257    9987.0236    19367.049    3.5924379    26.854752 
   38530    118.10044   -1034.9235    9981.0975    19367.788    3.5923008    26.855094 
   38540    117.56194   -1035.0445    9974.6808    19368.517    3.5921656    26.855431 
   38550    117.09281   -1035.5024    9965.7635    19369.233    3.5920328    26.855762 
   38560    116.69874   -1035.7772    9957.9476    19369.933    3.5919029    26.856085 
   38570    116.40324   -1036.2873    9948.1073    19370.615    3.5917766      26.8564 
   38580    116.24651   -1036.8161    9937.3665    19371.274    3.5916544    26.856705 
   38590    116.27491   -1037.7499    9922.5648    19371.906    3.5915371    26.856997 
   38600    116.52874   -1038.8563    9904.8518    19372.507    3.5914258    26.857275 
   38610     117.0346   -1040.1341    9883.9146    19373.068    3.5913217    26.857534 
   38620    117.79048   -1041.5458    9859.9158    19373.583    3.5912262    26.857772 
   38630    118.76464   -1043.3364    9831.3349    19374.043     3.591141    26.857984 
   38640    119.89434   -1045.2708    9800.2527    19374.436    3.5910681    26.858166 
   38650    121.09023   -1047.4031    9766.9602    19374.752    3.5910095    26.858312 
   38660    122.24192   -1049.7426     9732.218    19374.978    3.5909676    26.858417 
   38670    123.22134   -1051.7674    9700.5355    19375.102    3.5909447    26.858474 
   38680    123.89355   -1053.6693    9671.4358    19375.111     3.590943    26.858478 
   38690    124.13056   -1055.2128    9647.2604    19374.996    3.5909644    26.858425 
   38700    123.83387   -1056.1216    9630.3907    19374.747    3.5910105     26.85831 
   38710    122.96265   -1056.6579    9619.1622    19374.359    3.5910824    26.858131 
   38720    121.56706   -1056.7543    9613.9179    19373.829    3.5911807    26.857885 
   38730    119.79921   -1056.5768    9613.1404    19373.154    3.5913058    26.857574 
   38740    117.88623   -1056.0173    9617.0201    19372.335    3.5914576    26.857195 
   38750    116.07262   -1055.6278    9620.9995    19371.375    3.5916357    26.856751 
   38760     114.5597    -1055.341    9624.7258    19370.274    3.5918397    26.856243 
   38770    113.47387   -1055.1835    9627.2202    19369.036    3.5920694    26.855671 
   38780     112.8655   -1055.4053    9626.1328    19367.661    3.5923243    26.855035 
   38790    112.72468   -1055.8343    9622.3456    19366.151    3.5926045    26.854337 
   38800    113.00142   -1056.3732    9616.5775    19364.503    3.5929101    26.853576 
   38810    113.61599   -1057.2239     9607.794    19362.718    3.5932415     26.85275 
   38820    114.46915   -1058.5296    9595.6153    19360.791    3.5935991    26.851859 
   38830    115.45779    -1059.735    9584.6825    19358.719    3.5939836    26.850902 
   38840    116.48077   -1060.8724    9575.6069    19356.499    3.5943958    26.849875 
   38850     117.4431   -1061.7336    9570.6262    19354.129    3.5948361    26.848779 
   38860     118.2663   -1062.3766    9570.0266    19351.606    3.5953048    26.847612 
   38870    118.89038   -1062.4394    9576.8537    19348.931    3.5958017    26.846376 
   38880    119.27409   -1062.2207    9589.3648    19346.109    3.5963263     26.84507 
   38890    119.39815   -1061.5784    9608.6938    19343.144    3.5968776    26.843699 
   38900    119.26521   -1060.3956    9635.6243    19340.044    3.5974541    26.842265 
   38910    118.89364   -1058.8665    9668.6077    19336.821    3.5980537    26.840773 
   38920    118.31641   -1057.0773    9706.7125    19333.487    3.5986742    26.839231 
   38930    117.58136   -1054.9584     9749.995    19330.057    3.5993126    26.837644 
   38940    116.74507   -1052.6446    9796.9732    19326.549     3.599966     26.83602 
   38950    115.87527    -1050.137    9846.9753    19322.981    3.6006308    26.834368 
   38960    115.05595   -1047.5081    9898.7002    19319.371    3.6013036    26.832697 
   38970    114.38396   -1045.0236    9949.3576    19315.739    3.6019807    26.831016 
   38980    113.96208    -1042.743    9997.4968    19312.105    3.6026585    26.829333 
   38990    113.88725   -1040.7794    10041.299    19308.487    3.6033335    26.827657 
   39000     114.2257    -1038.951    10081.127    19304.902    3.6040028    26.825997 
   39010    114.99522   -1037.7211     10113.13    19301.364    3.6046635    26.824358 
   39020    116.14901   -1037.0711    10137.215    19297.884    3.6053133    26.822746 
   39030    117.57714    -1036.887    10154.425    19294.473    3.6059508    26.821165 
   39040    119.12208   -1036.7426    10168.439    19291.136    3.6065745    26.819619 
   39050    120.61064   -1036.9071    10178.457    19287.878    3.6071838    26.818109 
   39060    121.88319     -1037.07    10187.894    19284.702    3.6077778    26.816637 
   39070    122.81998   -1037.0651    10199.109    19281.613    3.6083559    26.815205 
   39080    123.35291   -1036.6512    10214.709    19278.612    3.6089174    26.813814 
   39090    123.47108   -1035.9499    10234.335    19275.707    3.6094614    26.812467 
   39100    123.21708    -1035.009    10257.639    19272.904    3.6099863    26.811167 
   39110    122.67738   -1033.6466    10285.401    19270.211    3.6104907    26.809918 
   39120    121.96791   -1032.3173      10313.6    19267.639    3.6109728    26.808725 
   39130     121.2127   -1030.9029    10342.023    19265.196    3.6114306    26.807592 
   39140    120.52813   -1029.5254    10368.803    19262.894    3.6118623    26.806525 
   39150    120.00412   -1028.4704    10391.106    19260.741     3.612266    26.805526 
   39160    119.69491   -1027.6818    10408.769    19258.746    3.6126403      26.8046 
   39170    119.61846   -1027.3269    10420.379    19256.913    3.6129841     26.80375 
   39180    119.75971   -1027.3091    10426.654    19255.247    3.6132967    26.802977 
   39190    120.08243    -1027.457    10429.071    19253.749    3.6135778    26.802282 
   39200     120.5317   -1027.9932    10426.498    19252.419    3.6138274    26.801665 
   39210    121.04385     -1028.64    10421.371    19251.256    3.6140457    26.801125 
   39220    121.55754    -1029.469    10413.697    19250.257    3.6142333    26.800661 
   39230    122.01668   -1030.1677    10406.119    19249.418    3.6143908    26.800272 
   39240    122.37603   -1030.8567    10398.163    19248.736    3.6145189    26.799956 
   39250    122.60404   -1031.1842     10392.57    19248.207    3.6146182     26.79971 
   39260    122.67795   -1031.5466    10386.749    19247.829    3.6146893    26.799534 
   39270    122.58712   -1031.7653    10382.046    19247.597    3.6147327    26.799427 
   39280    122.33253   -1032.0443    10377.046    19247.511    3.6147489    26.799387 
   39290    121.92699   -1032.1834     10373.06    19247.568    3.6147383    26.799413 
   39300    121.39307   -1032.3126     10368.99    19247.764    3.6147014    26.799504 
   39310    120.76258   -1032.2025    10366.161    19248.099    3.6146385     26.79966 
   39320    120.07607   -1032.2226    10361.673    19248.571    3.6145499    26.799879 
   39330    119.37504   -1032.4696    10354.525    19249.176    3.6144362     26.80016 
   39340    118.70215    -1032.744    10345.835    19249.913    3.6142979    26.800502 
   39350    118.09154   -1032.9793    10335.854    19250.777    3.6141357    26.800903 
   39360    117.56884   -1033.6845    10320.924    19251.763    3.6139505     26.80136 
   39370    117.14747   -1034.4668    10303.834    19252.867    3.6137434    26.801872 
   39380    116.82571   -1035.4031     10284.25     19254.08    3.6135158    26.802435 
   39390    116.58437   -1036.4729    10262.672    19255.395     3.613269    26.803045 
   39400    116.39267   -1037.6657    10239.656    19256.803    3.6130046    26.803699 
   39410    116.21398    -1038.669    10217.936    19258.297    3.6127245    26.804392 
   39420    116.00931   -1039.6109    10197.168    19259.866      3.61243     26.80512 
   39430     115.7409   -1040.4499    10178.135    19261.504    3.6121229     26.80588 
   39440    115.38159   -1041.0369    10162.275    19263.202    3.6118045    26.806667 
   39450    114.91857   -1041.3662    10149.885    19264.954     3.611476     26.80748 
   39460    114.35554   -1041.3811    10141.445    19266.756    3.6111382    26.808316 
   39470     113.7158   -1041.3958    10134.646    19268.604    3.6107919    26.809173 
   39480    113.04337   -1041.0883    10131.419    19270.496    3.6104375     26.81005 
   39490    112.40217   -1040.6044    10130.272    19272.429    3.6100753    26.810947 
   39500    111.87165   -1040.2783    10128.293    19274.403    3.6097055    26.811862 
   39510    111.54303   -1040.0346    10125.427    19276.418    3.6093282    26.812797 
   39520    111.51238   -1039.9634     10120.54    19278.472    3.6089436    26.813749 
   39530    111.87465   -1040.1128    10112.969    19280.564    3.6085522    26.814718 
   39540    112.71569   -1040.4564    10102.837    19282.689    3.6081545    26.815704 
   39550    114.08242   -1041.0902    10089.699    19284.844    3.6077512    26.816703 
   39560    115.95351   -1042.2331    10072.525    19287.025    3.6073434    26.817713 
   39570    118.20024   -1043.3881    10055.411    19289.223    3.6069321    26.818732 
   39580      120.579   -1044.4335    10039.787    19291.434    3.6065188    26.819757 
   39590    122.78967   -1045.4312    10025.731    19293.652    3.6061043    26.820785 
   39600    124.57066   -1045.9682    10016.631     19295.87    3.6056898    26.821812 
   39610     125.7622   -1046.2308    10011.718    19298.085    3.6052759    26.822839 
   39620    126.30935   -1045.9311     10013.45    19300.296    3.6048628    26.823863 
   39630     126.2334   -1045.0482    10022.204    19302.504    3.6044505    26.824886 
   39640    125.60415   -1043.6821    10037.179    19304.711    3.6040384    26.825908 
   39650    124.52723   -1041.9593    10057.035    19306.924    3.6036254    26.826933 
   39660    123.13284   -1039.9509    10080.488    19309.149    3.6032101    26.827964 
   39670    121.56869   -1037.7616    10105.778    19311.396    3.6027908    26.829004 
   39680    119.98785     -1035.61     10130.21    19313.674    3.6023658    26.830059 
   39690    118.53982   -1033.7174    10151.075    19315.992    3.6019335    26.831133 
   39700    117.35398   -1032.1115    10167.132    19318.358    3.6014924    26.832228 
   39710    116.53104   -1031.0565    10175.749    19320.778    3.6010414    26.833348 
   39720    116.13199   -1030.4233     10177.37    19323.254      3.60058    26.834494 
   39730    116.17699   -1030.4733    10170.102    19325.786    3.6001081    26.835667 
   39740    116.64332   -1030.9723    10155.863    19328.373    3.5996262    26.836864 
   39750    117.46988   -1031.9826    10134.804    19331.009    3.5991355    26.838084 
   39760    118.56743   -1033.1905    10109.923    19333.685    3.5986373    26.839322 
   39770    119.82921   -1034.5601    10082.402    19336.392    3.5981336    26.840575 
   39780    121.14734   -1036.1341    10052.846    19339.119    3.5976261    26.841837 
   39790     122.4277   -1037.6607    10023.708    19341.855    3.5971172    26.843103 
   39800    123.60921   -1039.0861    9995.7247     19344.59    3.5966087    26.844367 
   39810     124.6723   -1040.6134    9967.4608    19347.312    3.5961027    26.845626 
   39820     125.6321   -1041.8076    9941.6145     19350.01    3.5956012    26.846875 
   39830    126.51507   -1043.1339    9914.5227    19352.676     3.595106    26.848107 
   39840    127.33442   -1044.5468    9886.2336    19355.298    3.5946189     26.84932 
   39850    128.06067   -1046.0147    9857.0264    19357.867    3.5941419    26.850507 
   39860    128.62015   -1047.4443    9828.0009    19360.371    3.5936771    26.851665 
   39870    128.90234   -1048.9606    9799.0153    19362.799    3.5932264    26.852788 
   39880     128.7916    -1050.163    9773.6927    19365.141    3.5927918    26.853871 
   39890    128.19259   -1050.9379    9753.5581    19367.389    3.5923749    26.854909 
   39900    127.05466   -1051.4774    9737.7516    19369.533    3.5919772      26.8559 
   39910    125.40128   -1051.3441    9729.4691    19371.569    3.5915996    26.856841 
   39920    123.34747   -1050.8831    9726.1629    19373.494    3.5912427    26.857731 
   39930    121.08726   -1050.0351    9727.8022    19375.307    3.5909067    26.858569 
   39940     118.8498   -1049.0265    9732.0996     19377.01    3.5905912    26.859355 
   39950    116.84761   -1048.3203    9734.9056    19378.603    3.5902959    26.860092 
   39960     115.2415   -1047.6864    9736.7999    19380.089    3.5900206    26.860778 
   39970    114.12585   -1047.4288    9734.7259    19381.469    3.5897651    26.861416 
   39980    113.53283    -1047.606     9727.555    19382.742    3.5895294    26.862004 
   39990    113.45118   -1048.0332    9716.1947    19383.905    3.5893139    26.862541 
   40000    113.83427    -1048.647     9701.105    19384.956    3.5891193    26.863027 
Loop time of 5.80088 on 1 procs for 20000 steps with 500 atoms

Performance: 297.886 ns/day, 0.081 hours/ns, 3447.756 timesteps/s
88.2% CPU use with 1 MPI tasks x no OpenMP threads

MPI task timing breakdown:
Section |  min time  |  avg time  |  max time  |%varavg| %total
---------------------------------------------------------------
Pair    | 4.8664     | 4.8664     | 4.8664     |   0.0 | 83.89
Neigh   | 0.13538    | 0.13538    | 0.13538    |   0.0 |  2.33
Comm    | 0.19885    | 0.19885    | 0.19885    |   0.0 |  3.43
Output  | 0.031298   | 0.031298   | 0.031298   |   0.0 |  0.54
Modify  | 0.49211    | 0.49211    | 0.49211    |   0.0 |  8.48
Other   |            | 0.07687    |            |       |  1.33

Nlocal:    500 ave 500 max 500 min
Histogram: 1 0 0 0 0 0 0 0 0 0
Nghost:    1407 ave 1407 max 1407 min
Histogram: 1 0 0 0 0 0 0 0 0 0
Neighs:    13495 ave 13495 max 13495 min
Histogram: 1 0 0 0 0 0 0 0 0 0

Total # of neighbors = 13495
Ave neighs/atom = 26.99
Neighbor list builds = 169
Dangerous builds = 0
Total wall time: 0:00:10
