LAMMPS (7 Aug 2019)
Reading data file ...
  orthogonal box = (-1.4719 -1.4719 -1.4719) to (26.4719 26.4719 26.4719)
  1 by 1 by 1 MPI processor grid
  reading atoms ...
  500 atoms
  reading velocities ...
  500 velocities
  read_data CPU = 0.00640082 secs
Neighbor list info ...
  update every 1 steps, delay 10 steps, check yes
  max neighbors/atom: 2000, page size: 100000
  master list distance cutoff = 8
  ghost atom cutoff = 8
  binsize = 4, bins = 7 7 7
  1 neighbor lists, perpetual/occasional/extra = 1 0 0
  (1) pair lj/cut, perpetual
      attributes: half, newton on
      pair build: half/bin/atomonly/newton
      stencil: half/bin/3d/newton
      bin: standard
Setting up Verlet run ...
  Unit style    : real
  Current step  : 0
  Time step     : 1
Per MPI rank memory allocation (min/avg/max) = 3.998 | 3.998 | 3.998 Mbytes
Step Temp PotEng Press Volume Density Lx 
       0   0.94924373   -1315.7856    26.487323    21820.062    3.1885758    27.943791 
      10    0.9473169   -1315.7852   -5.5852805    21841.227    3.1854859    27.952823 
      20   0.94599586   -1315.7783   -24.041931    21853.513    3.1836951    27.958063 
      30   0.94617202   -1315.7764    15.681566    21827.271    3.1875226    27.946868 
      40   0.94604451   -1315.7705    17.481014    21826.145     3.187687    27.946388 
      50   0.94562327   -1315.7616   -23.002668    21852.997    3.1837702    27.957843 
      60   0.94683671   -1315.7567   -7.8062585     21842.99    3.1852288    27.953575 
      70   0.94894534   -1315.7461    26.364196     21820.55    3.1885045    27.943999 
      80   0.95032021    -1315.739   -3.3432731     21840.23    3.1856313    27.952398 
      90   0.95221657   -1315.7249    -24.84719    21854.614    3.1835347    27.958533 
     100   0.95530927   -1315.7167    13.762287    21829.173    3.1872449     27.94768 
     110   0.95736482   -1315.7037     19.09314    21825.796    3.1877381    27.946239 
     120   0.95775747   -1315.6887   -21.769289     21852.96    3.1837756    27.957828 
     130   0.95802131   -1315.6768   -9.9265545    21845.242    3.1849004    27.954536 
     140   0.95727536   -1315.6601    25.995894    21821.694    3.1883373    27.944488 
     150   0.95382187   -1315.6468   -1.0715265    21839.684    3.1857109    27.952165 
     160   0.94913513   -1315.6265   -25.428084    21856.007    3.1833317    27.959127 
     170   0.94452579   -1315.6129     11.71739    21831.565    3.1868957    27.948701 
     180   0.93851682   -1315.5939    20.530514    21825.931    3.1877183    27.946296 
     190   0.93111881   -1315.5744   -20.336095    21853.127    3.1837513    27.957899 
     200    0.9244896    -1315.557   -11.949796    21847.735     3.184537    27.955599 
     210   0.91836553   -1315.5362     25.39211    21823.269    3.1881072     27.94516 
     220   0.91130656   -1315.5186    1.2099531    21839.389    3.1857539    27.952039 
     230   0.90465249   -1315.4944   -25.772411    21857.485    3.1831165    27.959757 
     240   0.89961477   -1315.4774    9.5735681    21834.253    3.1865034    27.949848 
     250   0.89460027   -1315.4547    21.774902    21826.417    3.1876473    27.946504 
     260   0.88917305   -1315.4328   -18.720485    21853.392    3.1837126    27.958012 
     270   0.88503868   -1315.4119   -13.854266    21850.367    3.1841535    27.956722 
     280   0.88173394   -1315.3888    24.554032    21825.209    3.1878238    27.945988 
     290   0.87749851   -1315.3687    3.4698026    21839.314     3.185765    27.952007 
     300   0.87323188   -1315.3421   -25.878273        21859    3.1828958    27.960403 
     310   0.87002666    -1315.323    7.3517341     21837.18    3.1860763    27.951096 
     320   0.86634781   -1315.2979    22.808568    21827.214     3.187531    27.946844 
     330   0.86167119   -1315.2745   -16.939749    21853.707    3.1836667    27.958146 
     340   0.85774515   -1315.2511    -15.61735     21853.05    3.1837625    27.957866 
     350   0.85442719   -1315.2266    23.491449    21827.427    3.1874999    27.946935 
     360   0.85015152   -1315.2044    5.6844532    21839.386    3.1857545    27.952038 
     370    0.8458164   -1315.1761   -25.740484    21860.462     3.182683    27.961026 
     380   0.84266258   -1315.1552    5.0798086    21840.241    3.1856297    27.952402 
     390   0.83931927   -1315.1281    23.620035    21828.252    3.1873794    27.947287 
     400   0.83513325   -1315.1035   -15.012188    21854.019    3.1836213    27.958279 
     410   0.83171037   -1315.0775   -17.216595     21855.72    3.1833735    27.959005 
     420   0.82898134   -1315.0517    22.215634    21829.882    3.1871414    27.947982 
     430   0.82534336   -1315.0273    7.8258092    21839.607    3.1857222    27.952132 
     440   0.82150071   -1314.9973   -25.360178    21861.867    3.1824785    27.961625 
     450   0.81871117   -1314.9744    2.7835415    21843.429    3.1851647    27.953763 
     460   0.81573098   -1314.9452    24.196035    21829.558    3.1871887    27.947844 
     470   0.81182327    -1314.919   -12.961209    21854.367    3.1835706    27.958428 
     480   0.80852177   -1314.8904   -18.632545    21858.393    3.1829843    27.960144 
     490   0.80590436   -1314.8631    20.740106    21832.595    3.1867453     27.94914 
     500   0.80241892   -1314.8363    9.8666588    21840.024    3.1856613     27.95231 
     510   0.79863974   -1314.8046   -24.740335    21863.245    3.1822778    27.962213 
     520   0.79585833   -1314.7795   0.49081163    21846.753    3.1846801     27.95518 
     530    0.7929674   -1314.7482    24.527644    21831.163    3.1869544    27.948529 
     540   0.78915653   -1314.7204   -10.811065     21854.79     3.183509    27.958608 
     550   0.78586763   -1314.6894   -19.846801    21861.074    3.1825939    27.961288 
     560   0.78330108   -1314.6608    19.081877    21835.573    3.1863107    27.950411 
     570   0.77995643   -1314.6317    11.780631    21840.669    3.1855673    27.952585 
     580   0.77627524   -1314.5987      -23.887    21864.612    3.1820789    27.962796 
     590   0.77356371   -1314.5716   -1.7697906    21850.201    3.1841776    27.956651 
     600    0.7708494   -1314.5387     24.60902    21833.074    3.1866754    27.949345 
     610   0.76725869   -1314.5098   -8.5879196    21855.306    3.1834339    27.958828 
     620   0.76413194   -1314.4769   -20.842834    21863.751    3.1822042    27.962429 
     630   0.76177933   -1314.4474    17.261191    21838.796    3.1858404    27.951786 
     640   0.75875832   -1314.4166    13.542487    21841.549    3.1854389     27.95296 
     650   0.75537824   -1314.3828   -22.809249    21865.963    3.1818823    27.963372 
     660     0.752945   -1314.3542   -3.9690135    21853.741    3.1836618    27.958161 
     670   0.75061815   -1314.3204    24.437693     21835.28    3.1863534    27.950286 
     680   0.74746939   -1314.2907    -6.319854    21855.917    3.1833448    27.959089 
     690   0.74473258   -1314.2565    -21.60653    21866.397    3.1818192    27.963557 
     700   0.74282011   -1314.2266    15.301096    21842.233    3.1853391    27.953252 
     710   0.74035596   -1314.1946    15.127975    21842.662    3.1852766    27.953435 
     720   0.73752504   -1314.1607   -21.519821    21867.287    3.1816897    27.963936 
     730   0.73562909   -1314.1311   -6.0777431    21857.333    3.1831385    27.959693 
     740   0.73396372   -1314.0971    24.014386    21837.758    3.1859919    27.951343 
     750   0.73155985   -1314.0671   -4.0370221    21856.621    3.1832423    27.959389 
     760   0.72954965   -1314.0324   -22.126873    21868.978    3.1814436    27.964657 
     770   0.72844964   -1314.0027    13.227122    21845.838    3.1848135     27.95479 
     780   0.72696196   -1313.9704    16.514169    21843.992    3.1850827    27.954003 
     790   0.72515718   -1313.9372   -20.035295    21868.558    3.1815047    27.964478 
     800   0.72433612   -1313.9074   -8.0673751    21860.918    3.1826166    27.961221 
     810    0.7239374   -1313.8743    23.343475     21840.46    3.1855978    27.952496 
     820   0.72295823   -1313.8451   -1.7711462    21857.386    3.1831309    27.959715 
     830   0.72243135   -1313.8112   -22.396064     21871.43     3.181087    27.965702 
     840   0.72298152    -1313.783    11.067604    21849.526    3.1842759    27.956363 
     850   0.72338952   -1313.7518     17.68046    21845.476    3.1848662    27.954636 
     860   0.72360829   -1313.6963   -18.252528    21869.726    3.1813349    27.964976 
     870   0.72493709   -1313.6679   -10.021228    21864.559    3.1820865    27.962773 
     880   0.72695295   -1313.6621    22.219931    21843.421    3.1851659    27.953759 
     890   0.72861337   -1313.5862   0.83987083    21858.064    3.1830321    27.960004 
     900   0.73083561   -1313.5305   -22.405978    21873.934    3.1807227    27.966769 
     910   0.73435229   -1313.5303    8.3711837    21853.676    3.1836713    27.958133 
     920   0.73798769   -1313.4776    19.045358    21847.014     3.184642    27.955292 
     930   0.74153796   -1313.4263   -16.142642    21870.741    3.1811872    27.965408 
     940   0.74627932   -1313.4012   -12.267197    21868.443    3.1815214    27.964429 
     950   0.75194968      -1313.4    21.027597    21846.555     3.184709    27.955096 
     960    0.7573737   -1313.3527    3.5030761    21858.517    3.1829661    27.960197 
     970   0.76330382    -1313.326   -22.384032    21876.008    3.1804213    27.967653 
     980   0.77062296   -1313.3058    5.7919561    21857.528    3.1831103    27.959775 
     990   0.77820439    -1313.282    19.853908    21848.482    3.1844281    27.955918 
    1000   0.78559835   -1313.2604   -14.041851     21871.21    3.1811189    27.965608 
    1010   0.79410143   -1313.2394   -13.845085    21871.322    3.1811026    27.965656 
    1020   0.80359282   -1313.2189    19.706873    21849.307    3.1843079     27.95627 
    1030   0.81275924   -1313.1759    5.6528751    21858.934    3.1829054    27.960375 
    1040   0.82221193   -1313.1294   -21.717053     21877.47    3.1802087    27.968276 
    1050   0.83295526   -1313.1384    3.3315852    21860.918    3.1826166    27.961221 
    1060   0.84389295   -1313.1436    20.303188    21849.801    3.1842359     27.95648 
    1070   0.85434854   -1313.0778   -11.361102    21871.206    3.1811195    27.965607 
    1080   0.86562107    -1313.085    -15.55405    21874.103    3.1806982    27.966841 
    1090   0.87778107   -1313.0941     17.60359    21852.191    3.1838877      27.9575 
    1100   0.88937153   -1313.0549    8.3142531    21858.628      3.18295    27.960245 
    1110   0.90082011   -1313.0129   -20.757122    21878.251    3.1800951    27.968609 
    1120   0.91334337   -1313.0012   0.13579626    21864.519    3.1820925    27.962756 
    1130    0.9258911   -1313.0106    20.499625    21851.107    3.1840455    27.957038 
    1140   0.93758576   -1312.9493   -8.1468942    21870.467     3.181227    27.965292 
    1150   0.94968247   -1312.9601   -17.130402    21876.514    3.1803476    27.967869 
    1160   0.96254736   -1312.9987    15.026863    21855.105    3.1834631    27.958742 
    1170   0.97460928   -1312.9881    10.900218    21857.982    3.1830441    27.959969 
    1180   0.98606535   -1312.8774   -19.003436    21878.405    3.1800728    27.968675 
    1190   0.99831006   -1312.8948   -3.4314032    21868.059    3.1815773    27.964265 
    1200    1.0104845   -1312.9096    20.224618    21852.402    3.1838569     27.95759 
    1210    1.0214076    -1312.854   -4.8588044    21869.338    3.1813912     27.96481 
    1220    1.0322831   -1312.8455   -18.210563    21878.334    3.1800831    27.968644 
    1230    1.0436955   -1312.8664     12.20124    21858.102    3.1830266     27.96002 
    1240    1.0540308   -1312.8619    13.018049    21857.635    3.1830945    27.959821 
    1250    1.0631768   -1312.8326   -17.332499     21877.97     3.180136    27.968489 
    1260     1.072625   -1312.8569   -5.9550962    21870.334    3.1812464    27.965235 
    1270    1.0816603   -1312.8555    19.579626    21853.434    3.1837066     27.95803 
    1280    1.0888477   -1312.8329   -2.1533711    21867.951     3.181593    27.964219 
    1290    1.0952303   -1312.8085   -18.409868     21878.88    3.1800038    27.968877 
    1300    1.1015647   -1312.8145    9.5437427    21860.267    3.1827114    27.960943 
    1310    1.1062367   -1312.8442    14.260095    21857.005    3.1831864    27.959552 
    1320    1.1088651   -1312.8255    -15.19226    21876.615    3.1803329    27.967912 
    1330    1.1109796   -1312.8599   -8.1083377    21871.716    3.1810453    27.965824 
    1340    1.1122281    -1312.919    18.289253    21853.907    3.1836376    27.958231 
    1350    1.1111894   -1312.9322   0.55281531     21865.54    3.1819438    27.963191 
    1360    1.1088739   -1312.9193   -18.185651    21877.979    3.1801346    27.968493 
    1370     1.106526   -1313.0355    6.3558611    21861.093    3.1825912    27.961295 
    1380    1.1030872   -1313.0522    15.566266    21854.817    3.1835051     27.95862 
    1390    1.0982885   -1313.0463   -12.739342    21873.513     3.180784     27.96659 
    1400    1.0939549   -1313.0675   -10.250729    21871.641    3.1810562    27.965792 
    1410    1.0903286   -1313.1146    16.779058    21853.377    3.1837148    27.958006 
    1420    1.0862006   -1313.1396    3.2470039    21862.093    3.1824455    27.961722 
    1430     1.082427   -1313.1385   -17.839413    21875.962    3.1804279    27.967634 
    1440    1.0803213   -1313.1925    3.8651574    21861.148    3.1825831    27.961319 
    1450    1.0788677   -1313.2205    16.014877    21852.816    3.1837966    27.957766 
    1460    1.0773796   -1313.2259   -10.362158    21870.114    3.1812783    27.965141 
    1470    1.0772106   -1313.2571   -11.548804    21870.592    3.1812088    27.965345 
    1480    1.0784934   -1313.3148    15.007419    21852.548    3.1838357    27.957652 
    1490    1.0797418   -1313.3493     5.404387    21858.571    3.1829583     27.96022 
    1500     1.081261   -1313.3822   -16.924748    21873.073     3.180848    27.966402 
    1510    1.0842052   -1313.4447    1.5022256    21860.364    3.1826973    27.960985 
    1520    1.0875836   -1313.4808    16.103053    21850.337    3.1841578    27.956709 
    1530    1.0904089   -1313.5186   -8.2047237    21866.083    3.1818647    27.963423 
    1540    1.0938374   -1313.5318   -12.345258    21868.565    3.1815037    27.964481 
    1550    1.0981323   -1313.5961    12.973595    21851.285    3.1840196    27.957113 
    1560    1.1018355    -1313.636    6.7603907    21855.011    3.1834767    27.958702 
    1570     1.105061   -1313.6743   -15.583142    21869.463     3.181373    27.964864 
    1580    1.1090293   -1313.7409  -0.27158323    21858.789    3.1829266    27.960313 
    1590    1.1129346   -1313.7809     15.60014    21847.886     3.184515    27.955664 
    1600    1.1157568    -1313.822   -6.2472269     21861.96    3.1824649    27.961665 
    1610    1.1185924   -1313.8621   -12.761599    21865.891    3.1818928    27.963341 
    1620    1.1218926    -1313.904    11.418332    21849.449    3.1842872     27.95633 
    1630     1.124312   -1313.9452    7.8012055     21851.44    3.1839971    27.957179 
    1640    1.1259129   -1313.9846   -14.474943    21865.823    3.1819027    27.963312 
    1650    1.1279655   -1314.0267    -1.702075    21856.932     3.183197    27.959521 
    1660    1.1298606   -1314.0668    14.951906    21845.509    3.1848615     27.95465 
    1670    1.1305941   -1314.1075    -4.570264    21858.034    3.1830365    27.959991 
    1680    1.1311945   -1314.1467   -12.800535    21863.105    3.1822983    27.962153 
    1690    1.1322381   -1314.1876    9.7801355    21847.733    3.1845374    27.955598 
    1700    1.1324978   -1314.2273    8.5110205    21848.177    3.1844725    27.955788 
    1710    1.1319496   -1314.2653   -13.153647    21862.154    3.1824367    27.961748 
    1720    1.1318472   -1314.3054   -2.9324625    21854.974    3.1834822    27.958687 
    1730    1.1317324   -1314.3436      14.1475    21843.284    3.1851859    27.953701 
    1740    1.1306077   -1314.3823   -3.0289474    21854.264    3.1835855    27.958384 
    1750    1.1293849   -1314.4191   -12.636071    21860.261    3.1827122    27.960941 
    1760    1.1287075   -1314.4579     8.194095     21846.07    3.1847798    27.954889 
    1770    1.1274605   -1314.4951    8.9982315     21845.16    3.1849123    27.954501 
    1780    1.1255217   -1314.5311   -11.796526    21858.567    3.1829589    27.960219 
    1790    1.1240784   -1314.5685   -3.9610002    21852.992     3.183771    27.957841 
    1800     1.122797   -1314.6046    13.227391    21841.249    3.1854827    27.952833 
    1810     1.120692   -1314.6409   -1.6399203    21850.714    3.1841029     27.95687 
    1820     1.118535   -1314.6754   -12.300499    21857.422    3.1831256     27.95973 
    1830    1.1170282   -1314.7364    6.7078166    21844.359    3.1850292    27.954159 
    1840     1.115139   -1314.7713    9.4260422    21842.202    3.1853437    27.953239 
    1850    1.1126397   -1314.8052   -10.516503    21855.051    3.1834709    27.958719 
    1860    1.1106348   -1314.8402   -4.9003542    21850.968    3.1840659    27.956978 
    1870    1.1088973   -1314.8742    12.351473    21839.202    3.1857812    27.951959 
    1880    1.1064477   -1314.9082  -0.35714423    21847.252    3.1846074    27.955393 
    1890    1.1039171   -1314.9405   -11.967841    21854.603    3.1835362    27.958528 
    1900    1.1019957   -1314.9746    5.2960808    21842.818    3.1852539    27.953502 
    1910    1.0997724    -1315.007    9.5324388    21839.677    3.1857119    27.952162 
    1920     1.096939   -1315.0386   -9.1768896    21851.722    3.1839559      27.9573 
    1930    1.0944976   -1315.0707   -5.5506408    21848.982    3.1843553    27.956131 
    1940    1.0923116   -1315.1021    11.302982    21837.504    3.1860289    27.951235 
    1950    1.0894359   -1315.1331   0.71678101    21844.172    3.1850564     27.95408 
    1960    1.0863721   -1315.1624   -11.382307    21851.869    3.1839346    27.957362 
    1970    1.0838044   -1315.1932    4.0056627    21841.358    3.1854668    27.952879 
    1980    1.0809284   -1315.2221    9.4940393    21837.421    3.1860411    27.951199 
    1990    1.0773807   -1315.2502   -7.8956029    21848.619    3.1844081    27.955976 
    2000    1.0740663   -1315.2782   -6.0359262    21847.086    3.1846315    27.955323 
    2010    1.0709297   -1315.3055    10.249463    21836.025    3.1862448    27.950604 
    2020    1.0670816   -1315.3321    1.6344427     21841.43    3.1854563     27.95291 
    2030    1.0629194   -1315.3567    -10.72877    21849.342    3.1843028    27.956285 
    2040    1.0591157   -1315.3824    2.8428278    21840.085    3.1856525    27.952336 
    2050     1.054979    -1315.406    9.3411154    21835.533    3.1863166    27.950394 
    2060    1.0501239   -1315.4286   -6.6906815    21845.883     3.184807    27.954809 
    2070    1.0453698   -1315.4505   -6.3792261    21845.435    3.1848722    27.954618 
    2080    1.0407369   -1315.4716    9.2163836    21834.893    3.1864099    27.950121 
    2090    1.0354164   -1315.4915    2.4075126     21839.17    3.1857859    27.951946 
    2100    1.0297303   -1315.5094   -10.037127    21847.201    3.1846149    27.955371 
    2110     1.024338   -1315.5278    1.8061185    21839.162    3.1857871    27.951942 
    2120    1.0186672    -1315.544    9.1018974     21834.16    3.1865169    27.949808 
    2130    1.0123444   -1315.5589   -5.5729209    21843.688     3.185127    27.953873 
    2140    1.0061164   -1315.5728   -6.6052343    21844.212    3.1850506    27.954097 
    2150    1.0000754   -1315.5858    8.2216362    21834.263    3.1865019    27.949852 
    2160   0.99351329   -1315.5974    3.0512695    21837.544    3.1860232    27.951252 
    2170   0.98670388   -1315.6068   -9.3319812     21845.62    3.1848454    27.954697 
    2180   0.98029359   -1315.6164   0.88801053    21838.748    3.1858475    27.951766 
    2190   0.97383296   -1315.6238    8.8011492     21833.43    3.1866234    27.949497 
    2200   0.96698444     -1315.63    -4.546196    21842.172     3.185348    27.953226 
    2210   0.96043741   -1315.6349    -6.737869    21843.559    3.1851458    27.953818 
    2220   0.95435251    -1315.639    7.2761506    21834.243    3.1865048    27.949844 
    2230   0.94813157   -1315.6416    3.5831509    21836.645    3.1861544    27.950868 
    2240   0.94202049   -1315.6423   -8.6314526    21844.703     3.184979    27.954306 
    2250   0.93665751   -1315.6429  0.077334237    21838.929    3.1858211    27.951843 
    2260   0.93170933   -1315.6417    8.4596118    21833.397    3.1866283    27.949482 
    2270   0.92687975   -1315.6393   -3.6081852    21841.388    3.1854624    27.952892 
    2280    0.9228079   -1315.6356   -6.7980586    21843.531    3.1851499    27.953806 
    2290   0.91970566   -1315.6314    6.3852369    21834.858    3.1864151    27.950106 
    2300    0.9170499   -1315.6258    4.0213516    21836.475    3.1861791    27.950796 
    2310   0.91502864   -1315.6185   -7.9469511    21844.462    3.1850141    27.954203 
    2320    0.9142223   -1315.6112  -0.63869932    21839.707    3.1857076    27.952175 
    2330   0.91430902   -1315.6023    8.0934671    21834.033    3.1865354    27.949754 
    2340   0.91490174   -1315.5924   -2.7522259    21841.306    3.1854743    27.952857 
    2350   0.91645175   -1315.5813   -6.8032698    21844.107    3.1850659    27.954052 
    2360   0.91903293   -1315.5699    5.5489163    21836.068    3.1862385    27.950622 
    2370   0.92195816   -1315.5571    4.3822721    21836.979    3.1861055    27.951011 
    2380   0.92514664   -1315.5429   -7.2852172     21844.85    3.1849576    27.954369 
    2390   0.92894553   -1315.5286    -1.274394    21841.032    3.1855144     27.95274 
    2400   0.93287807   -1315.5129    7.7130329    21835.264    3.1863557    27.950279 
    2410   0.93638064   -1315.4964   -1.9701383    21841.843     3.185396    27.953086 
    2420   0.93976455   -1315.4786   -6.7677067    21845.209    3.1849053    27.954522 
    2430   0.94309954   -1315.4606    4.7635802    21837.777    3.1859892    27.951351 
    2440   0.94574832   -1315.4414    4.6803134    21838.036    3.1859514    27.951462 
    2450    0.9476782   -1315.4209   -6.6477928    21845.742    3.1848276    27.954749 
    2460   0.94936526   -1315.4003   -1.8412632    21842.777    3.1852598    27.953485 
    2470   0.95052988   -1315.3786    7.3265112    21836.943    3.1861109    27.950995 
    2480   0.95076075   -1315.3561   -1.2510956    21842.843    3.1852502    27.953513 
    2490   0.95049335   -1315.3324   -6.6992491    21846.689    3.1846895    27.955153 
    2500   0.94996965   -1315.3088    4.0260541    21839.834    3.1856891    27.952229 
    2510   0.94870673   -1315.2841    4.9278645    21839.487    3.1857397    27.952081 
    2520   0.94674039   -1315.2583   -6.0329542    21846.994     3.184645    27.955283 
    2530   0.94461728   -1315.2325   -2.3486881    21844.814    3.1849629    27.954353 
    2540   0.94216917   -1315.2058    6.9378029    21838.938    3.1858198    27.951847 
    2550   0.93903339   -1315.1785  -0.58659662    21844.182     3.185055    27.954084 
    2560   0.93563421   -1315.1503   -6.6041352    21848.442    3.1844339    27.955901 
    2570   0.93225419   -1315.1223    3.3305859    21842.144    3.1853521    27.953214 
    2580    0.9284599   -1315.0933     5.132524    21841.236    3.1854845    27.952827 
    2590   0.92425116   -1315.0635   -5.4388078    21848.521    3.1844225    27.955934 
    2600   0.92013964   -1315.0337   -2.8053885    21847.068    3.1846342    27.955315 
    2610   0.91598807   -1315.0034    6.5475293    21841.177    3.1854932    27.952802 
    2620   0.91141969   -1314.9726    0.0305926    21845.787     3.184821    27.954768 
    2630   0.90678369    -1314.941   -6.4863829    21850.409    3.1841473     27.95674 
    2640   0.90234923   -1314.9097    2.6710866    21844.651    3.1849866    27.954284 
    2650   0.89769918   -1314.8776    5.2998447    21843.224    3.1851947    27.953675 
    2660    0.8927739   -1314.8449    -4.862186    21850.266    3.1841681    27.956679 
    2670   0.88802949   -1314.8123   -3.2183231    21849.495    3.1842805     27.95635 
    2680   0.88335068   -1314.7793    6.1548762    21843.613     3.185138    27.953841 
    2690   0.87835245   -1314.7459   0.60701332    21847.607    3.1845556    27.955545 
    2700   0.87331988   -1314.7117   -6.3480141    21852.544    3.1838362     27.95765 
    2710    0.8685204   -1314.6781     2.041759    21847.316    3.1845981     27.95542 
    2720   0.86357277   -1314.6438    5.4336584    21845.405    3.1848766    27.954605 
    2730   0.85838499    -1314.609   -4.2993411    21852.186    3.1838883    27.957498 
    2740   0.85338118   -1314.5742   -3.5928254    21852.057    3.1839072    27.957442 
    2750    0.8484885   -1314.5393     5.757995    21846.206    3.1847599    27.954947 
    2760   0.84333913   -1314.5041    1.1480506      21849.6    3.1842651    27.956395 
    2770   0.83817853   -1314.4683   -6.1896777     21854.81    3.1835061    27.958617 
    2780   0.83328816   -1314.4331    1.4373164    21850.102     3.184192    27.956609 
    2790   0.82833765   -1314.3973    5.5360827    21847.738    3.1845365    27.955601 
    2800   0.82322057   -1314.3613   -3.7466461    21854.238    3.1835895    27.958372 
    2810   0.81834084   -1314.3254   -3.9328326    21854.713    3.1835202    27.958575 
    2820   0.81367424   -1314.2896    5.3543051    21848.914    3.1843652    27.956102 
    2830    0.8088793   -1314.2536    1.6576747    21851.715     3.183957    27.957297 
    2840   0.80417101   -1314.2174   -6.0111095    21857.154    3.1831647    27.959616 
    2850   0.79984806   -1314.1818   0.85323931    21852.956    3.1837761    27.957826 
    2860   0.79563319    -1314.146    5.6078693    21850.162    3.1841833    27.956634 
    2870   0.79141062   -1314.1102   -3.2008069    21856.352    3.1832815    27.959274 
    2880   0.78756721   -1314.0747   -4.2408321    21857.394    3.1831297    27.959719 
    2890   0.78412643   -1314.0397    4.9411364    21851.659    3.1839651    27.957273 
    2900   0.78077216   -1314.0048    2.1387332    21853.864    3.1836438    27.958213 
    2910   0.77768957   -1313.9699   -5.8111684    21859.484    3.1828253     27.96061 
    2920    0.7751963   -1313.9115   0.35210005     21855.84    3.1833561    27.959056 
    2930   0.77308082   -1313.8778     5.525683    21852.753    3.1838057    27.957739 
    2940   0.77119081     -1313.82   -2.6904804    21858.636    3.1829488    27.960248 
    2950   0.76988534   -1313.7872   -4.5323215    21860.193    3.1827222    27.960912 
    2960   0.76922651   -1313.7553     4.553788    21854.496    3.1835518    27.958483 
    2970    0.7689245   -1313.6994    2.6802274    21856.162    3.1833092    27.959193 
    2980   0.76910837   -1313.6684   -5.7272209     21862.06    3.1824504    27.961708 
    2990   0.77011026   -1313.6633  -0.35533592    21858.707    3.1829385    27.960278 
    3000   0.77176696    -1313.585    6.0866539    21854.945    3.1834865    27.958674 
    3010   0.77387488   -1313.5567   -2.3651033     21860.85    3.1826266    27.961192 
    3020   0.77676331   -1313.5291   -5.0847974     21862.95    3.1823207    27.962087 
    3030   0.78052043   -1313.5029    4.4584264    21856.906    3.1832008     27.95951 
    3040   0.78479811   -1313.4773    3.1848894     21858.03     3.183037     27.95999 
    3050   0.78969105   -1313.4523   -5.7843918    21864.257    3.1821305    27.962645 
    3060   0.79554188   -1313.4289    -0.779115    21861.199    3.1825757    27.961341 
    3070   0.80213626   -1313.4062    6.0723942    21856.914    3.1831997    27.959514 
    3080   0.80922727   -1313.3845    -1.780216    21862.372    3.1824049    27.961841 
    3090   0.81713324   -1313.3636   -5.3229037    21864.968    3.1820271    27.962947 
    3100   0.82596169   -1313.3443    3.9736188    21859.031    3.1828913    27.960417 
    3110   0.83532143   -1313.3257     3.627701    21859.487     3.182825    27.960611 
    3120   0.84522819   -1313.3078   -5.4930725    21865.759    3.1819119    27.963285 
    3130   0.85604141    -1313.267   -1.3653482    21863.327    3.1822659    27.962248 
    3140   0.86752519   -1313.2516    5.8779195    21858.723    3.1829362    27.960285 
    3150    0.8793485   -1313.2371   -1.1156983    21863.554    3.1822329    27.962345 
    3160   0.89177775   -1313.2235   -5.4142214    21866.593    3.1817906     27.96364 
    3170   0.90494112   -1313.2116    3.3468493     21860.95     3.182612    27.961235 
    3180   0.91840055   -1313.2003    3.9828094    21860.693    3.1826494    27.961125 
    3190   0.93209318   -1313.1653   -4.9001516    21866.846    3.1817538    27.963748 
    3200   0.94636671   -1313.1564   -2.0158528    21865.074    3.1820117    27.962993 
    3210   0.96103745   -1313.1487    5.7351395    21860.064    3.1827409    27.960857 
    3220   0.97563032   -1313.1419  -0.40507081    21864.261    3.1821299    27.962646 
    3230   0.99034941    -1313.136   -5.5779117     21867.81    3.1816135    27.964159 
    3240    1.0053499   -1313.1319    2.7005667     21862.41    3.1823994    27.961857 
    3250    1.0201482   -1313.1041    4.4994702    21861.403     3.182546    27.961428 
    3260    1.0345713   -1313.0774   -4.7272022    21867.702    3.1816292    27.964113 
    3270     1.048905   -1313.0769    -2.703767    21866.414    3.1818166    27.963564 
    3280    1.0629112   -1313.0777    5.8184141    21860.799    3.1826339     27.96117 
    3290    1.0759976   -1313.0797   0.23614731    21864.528    3.1820911     27.96276 
    3300    1.0882836   -1313.0828   -5.9413101    21868.641    3.1814927    27.964513 
    3310    1.0999218   -1313.0881    2.2022744    21863.218    3.1822817    27.962202 
    3320    1.1102939   -1313.0945     4.976659    21861.346    3.1825542    27.961404 
    3330    1.1190807   -1313.1023   -4.3448075    21867.483    3.1816611     27.96402 
    3340    1.1265485   -1313.0875   -3.0956145    21866.678    3.1817782    27.963677 
    3350     1.132465   -1313.1236    5.3569532    21860.868    3.1826238      27.9612 
    3360    1.1362408   -1313.1613   0.64760045    21863.771    3.1822014    27.962437 
    3370    1.1380432   -1313.1758   -5.6572909    21867.813    3.1816131     27.96416 
    3380    1.1382599   -1313.1929    1.6658758    21862.776    3.1823461    27.962013 
    3390    1.1366665   -1313.2114    4.9187482    21860.422    3.1826889    27.961009 
    3400    1.1333703   -1313.2314   -3.7648501    21865.965     3.181882    27.963373 
    3410    1.1292767   -1313.2289   -3.3804126    21865.565    3.1819401    27.963202 
    3420    1.1248564   -1313.2531    4.9892641    21859.743    3.1827877     27.96072 
    3430    1.1201105   -1313.2788    1.2551186    21861.932     3.182469    27.961653 
    3440    1.1156216   -1313.3059    -5.550357    21866.144     3.181856    27.963449 
    3450    1.1120853   -1313.3355    1.0225025    21861.451     3.182539    27.961448 
    3460    1.1094027   -1313.4155    4.8947141    21858.337    3.1829923    27.960121 
    3470      1.10742   -1313.4479   -2.9468234    21863.179    3.1822874    27.962185 
    3480    1.1065536   -1313.5065   -3.7590599    21863.241    3.1822784    27.962211 
    3490    1.1068377   -1313.5423    4.6122112    21857.295    3.1831441    27.959676 
    3500    1.1077656   -1313.6283    1.6799464    21858.635     3.182949    27.960247 
    3510    1.1093139    -1313.666   -5.0987564    21862.718    3.1823545    27.961989 
    3520    1.1117312     -1313.73   0.41314919    21858.533    3.1829639    27.960204 
    3530    1.1145908     -1313.77    5.0556999    21855.021    3.1834754    27.958706 
    3540    1.1174733   -1313.8351   -2.6160315    21859.566    3.1828134    27.960645 
    3550     1.120614   -1313.8763   -3.8630073    21859.947    3.1827579    27.960807 
    3560    1.1239684   -1313.9182    4.2175332    21854.139    3.1836038     27.95833 
    3570    1.1269613   -1313.9845    1.9612452    21855.083    3.1834664    27.958733 
    3580    1.1295495   -1314.0259   -4.9969947    21859.248    3.1828597    27.960509 
    3590    1.1320092   -1314.0677   0.11397731    21855.409    3.1834189    27.958872 
    3600    1.1339935   -1314.1089    4.9496951    21851.761    3.1839503    27.957316 
    3610    1.1351104   -1314.1493   -2.1991616    21856.061    3.1833239     27.95915 
    3620    1.1356692    -1314.189   -4.0413803    21856.853    3.1832085    27.959488 
    3630    1.1357636   -1314.2283    3.8920851    21851.173    3.1840359    27.957066 
    3640    1.1349115   -1314.2662    2.4140685    21851.742     3.183953    27.957308 
    3650    1.1331283   -1314.3027   -4.9118823    21856.202    3.1833034     27.95921 
    3660    1.1308278   -1314.3386  -0.36135175    21852.799     3.183799    27.957759 
    3670    1.1277893   -1314.3729    5.0780538    21848.827    3.1843779    27.956065 
    3680    1.1236958   -1314.4056   -1.7685595    21853.006    3.1837688    27.957847 
    3690    1.1189339   -1314.4368   -4.3423204    21854.374    3.1835696    27.958431 
    3700     1.113712    -1314.467    3.5975219     21848.79    3.1843833    27.956049 
    3710    1.1076407   -1314.4953    2.8473022     21848.98    3.1843555     27.95613 
    3720    1.1007858   -1314.5217   -4.7960311    21853.756    3.1836597    27.958167 
    3730     1.093632   -1314.5472  -0.83862604    21850.859    3.1840817    27.956932 
    3740    1.0860537   -1314.5709    5.1680348    21846.627    3.1846986    27.955126 
    3750    1.0777864    -1314.593   -1.3277439    21850.688    3.1841066    27.956859 
    3760    1.0692423   -1314.6135   -4.6182464    21852.646    3.1838214    27.957694 
    3770    1.0606938   -1314.6331    3.2730396     21847.21    3.1846135    27.955375 
    3780    1.0518145   -1314.6511    3.2602128    21847.026    3.1846404    27.955297 
    3790    1.0426765   -1314.6675   -4.6495907    21852.087    3.1839028    27.957455 
    3800    1.0337777   -1314.6832   -1.3169257    21849.712    3.1842488    27.956443 
    3810    1.0250461   -1314.6977    5.2203443    21845.233    3.1849018    27.954532 
    3820     1.016231    -1314.711   -0.8760287    21849.127    3.1843342    27.956193 
    3830    1.0077177   -1314.7233   -4.8676408    21851.642    3.1839676    27.957265 
    3840   0.99979577   -1314.7352    2.9202516    21846.363     3.184737    27.955014 
    3850   0.99216422   -1314.7461    3.6540815    21845.765    3.1848241    27.954759 
    3860   0.98485761   -1314.7561   -4.4706459    21851.042     3.184055     27.95701 
    3870   0.97834495   -1314.7661   -1.7940252    21849.172    3.1843276    27.956212 
    3880   0.97257246   -1314.7754    5.2365486    21844.427    3.1850192    27.954188 
    3890   0.96726462   -1314.7844  -0.41162109    21848.079    3.1844868    27.955746 
    3900   0.96274383   -1314.7928   -5.0879253    21851.096    3.1840471    27.957033 
    3910   0.95928846   -1314.8015    2.5410757    21845.965     3.184795    27.954844 
    3920   0.95658572   -1314.8099    4.0301103    21844.905    3.1849496    27.954392 
    3930   0.95459474   -1314.8179   -4.2569536    21850.319    3.1841605    27.956701 
    3940   0.95373001   -1314.8263   -2.2675275    21848.928    3.1843631    27.956108 
    3950   0.95392148   -1314.8347    5.2174818    21843.903    3.1850956    27.953965 
    3960    0.9548189   -1314.8431  0.066521229    21847.241     3.184609    27.955388 
    3970   0.95664505   -1314.8513   -5.2766956     21850.71    3.1841034    27.956868 
    3980   0.95963207   -1314.8603    2.1366913    21845.729    3.1848295    27.954744 
    3990    0.9633948   -1314.8692    4.3879969    21844.168    3.1850571    27.954078 
    4000   0.96775656    -1314.878   -4.0072086    21849.653    3.1842575    27.956417 
    4010   0.97303574   -1314.8873   -2.7356486    21848.736    3.1843911    27.956026 
    4020   0.97908839   -1314.8968    5.1624635    21843.433    3.1851641    27.953764 
    4030   0.98541822   -1314.9064   0.55778213    21846.402    3.1847312    27.955031 
    4040   0.99210423   -1314.9158   -5.4323278    21850.292    3.1841643     27.95669 
    4050   0.99930204    -1314.926    1.7073121    21845.483    3.1848653    27.954639 
    4060    1.0065143    -1314.936    4.7257264    21843.405    3.1851683    27.953752 
    4070     1.013413   -1314.9458   -3.7212299    21848.912    3.1843654    27.956101 
    4080    1.0202437   -1314.9559   -3.1969649     21848.48    3.1844284    27.955917 
    4090    1.0268257   -1314.9661    5.0698952    21842.922    3.1852387    27.953546 
    4100    1.0325741   -1314.9762    1.0603689    21845.486    3.1848648     27.95464 
    4110    1.0375218   -1314.9858   -5.5533162    21849.777    3.1842393     27.95647 
    4120    1.0418743    -1314.996    1.2533925    21845.178    3.1849097    27.954509 
    4130    1.0451736   -1315.0056    5.0407123    21842.581    3.1852884    27.953401 
    4140    1.0471211    -1315.015   -3.3990967    21848.074    3.1844876    27.955744 
    4150    1.0480868   -1315.0242   -3.6491392    21848.146    3.1844771    27.955775 
    4160    1.0480725   -1315.0335    4.9387101    21842.368    3.1853194     27.95331 
    4170    1.0466495   -1315.0423     1.572192      21844.5    3.1850085     27.95422 
    4180     1.044035   -1315.0505   -5.6374988    21849.181    3.1843263    27.956216 
    4190    1.0406962   -1315.0591   0.77669941    21844.839    3.1849592    27.954364 
    4200    1.0364326    -1315.067    5.3305059    21841.734    3.1854119     27.95304 
    4210    1.0311495   -1315.0745   -3.0410111    21847.182    3.1846177    27.955363 
    4220    1.0254277   -1315.0817   -4.0889327    21847.786    3.1845296    27.955621 
    4230    1.0194897    -1315.089    4.7682488    21841.836    3.1853971    27.953083 
    4240    1.0130491   -1315.0957    2.0903862     21843.52    3.1851514    27.953801 
    4250    1.0063817   -1315.1018    -5.683209    21848.584    3.1844132    27.955961 
    4260    1.0000096   -1315.1082   0.27866033    21844.555    3.1850006    27.954243 
    4270   0.99376058   -1315.1141    5.5914838    21840.964    3.1855242    27.952711 
    4280   0.98747106   -1315.1195   -2.6486207    21846.341    3.1847402    27.955005 
    4290   0.98162412   -1315.1246   -4.5143942    21847.506    3.1845704    27.955502 
    4300   0.97638506   -1315.1298    4.5565722    21841.436    3.1854554    27.952912 
    4310   0.97137574   -1315.1344    2.6111598    21842.659     3.185277    27.953434 
    4320   0.96673152   -1315.1383   -5.6894846    21848.096    3.1844844    27.955753 
    4330   0.96288712   -1315.1426  -0.23990358    21844.432    3.1850185    27.954191 
    4340   0.95961838   -1315.1463    5.8203667    21840.375    3.1856101     27.95246 
    4350   0.95666016   -1315.1495   -2.2225065     21845.65    3.1848409     27.95471 
    4360   0.95440648   -1315.1523   -4.9228211    21847.399     3.184586    27.955456 
    4370   0.95300077   -1315.1552    4.3027515    21841.259    3.1854812    27.952837 
    4380   0.95201897   -1315.1573    3.1325217    21842.004    3.1853726    27.953155 
    4390   0.95151359   -1315.1587    -5.653871    21847.797    3.1845279    27.955626 
    4400   0.95189177   -1315.1603  -0.77743478     21844.55    3.1850013    27.954241 
    4410   0.95291657   -1315.1612    6.0146367    21840.048    3.1856578     27.95232 
    4420   0.95424806   -1315.1616   -1.7624656    21845.188    3.1849083    27.954513 
    4430   0.95621853   -1315.1612   -5.3114266    21847.541    3.1845653    27.955516 
    4440   0.95895604    -1315.161    4.0052806    21841.384     3.185463     27.95289 
    4450   0.96197061   -1315.1598    3.6519179    21841.634    3.1854266    27.952997 
    4460   0.96521345   -1315.1578   -5.5743733    21847.764    3.1845328    27.955612 
    4470   0.96904666   -1315.1558   -1.3333055    21844.985    3.1849379    27.954426 
    4480    0.9731847   -1315.1531    6.1705149     21840.06    3.1856561    27.952325 
    4490   0.97717863   -1315.1497   -1.2690759    21845.024    3.1849322    27.954443 
    4500   0.98129005   -1315.1455   -5.6778586    21847.995    3.1844991     27.95571 
    4510    0.9856339   -1315.1413    3.6618565     21841.87    3.1853921    27.953097 
    4520   0.98966581   -1315.1362    4.1660595      21841.6    3.1854315    27.952982 
    4530   0.99327934   -1315.1302   -5.4488585    21848.033    3.1844935    27.955727 
    4540   0.99686617   -1315.1243   -1.9064479    21845.762    3.1848246    27.954758 
    4550    1.0001835   -1315.1176    6.2842082    21840.425    3.1856028    27.952481 
    4560    1.0027825   -1315.1104  -0.74256527    21845.157    3.1849128      27.9545 
    4570     1.004977   -1315.1024   -6.0183646    21848.742    3.1843902    27.956029 
    4580    1.0069973   -1315.0947    3.2713951    21842.686    3.1852731    27.953445 
    4590    1.0083719   -1315.0861    4.6720676    21841.857    3.1853939    27.953092 
    4600    1.0090458   -1315.0769   -5.2740268    21848.542    3.1844194    27.955943 
    4610    1.0095268   -1315.0678   -2.4938328    21846.804    3.1846727    27.955202 
    4620    1.0096919   -1315.0584    6.3526615    21841.058    3.1855106    27.952751 
    4630    1.0091446   -1315.0486  -0.18307346    21845.488    3.1848645    27.954641 
    4640    1.0082623   -1315.0383   -6.3278098    21849.668    3.1842552    27.956424 
    4650    1.0073878   -1315.0286    2.8340065    21843.712    3.1851235    27.953883 
    4660    1.0061158   -1315.0184    5.1665472    21842.281    3.1853322    27.953273 
    4670    1.0044025   -1315.0078   -5.0465938    21849.153    3.1843303    27.956204 
    4680    1.0028101   -1314.9976   -3.0912688    21847.969    3.1845029    27.955699 
    4690    1.0012851   -1314.9873    6.3727365    21841.818    3.1853996    27.953075 
    4700   0.99942438    -1314.977   0.40830106    21845.874    3.1848083    27.954805 
    4710   0.99758559   -1314.9663   -6.6006365    21850.627    3.1841155    27.956833 
    4720    0.9961487   -1314.9566     2.350386    21844.807    3.1849638     27.95435 
    4730   0.99471056   -1314.9464    5.6452229    21842.736    3.1852658    27.953467 
    4740   0.99315999   -1314.9361   -4.7638122    21849.733    3.1842458    27.956451 
    4750   0.99203323   -1314.9262   -3.6939911    21849.129    3.1843338    27.956194 
    4760   0.99128322   -1314.9166    6.3410202    21842.592    3.1852868    27.953405 
    4770   0.99043732   -1314.9068    1.0293778    21846.208    3.1847596    27.954948 
    4780   0.98976688   -1314.8967    -6.831393    21851.517    3.1839858    27.957212 
    4790   0.98963751   -1314.8875    1.8213555    21845.885    3.1848066     27.95481 
    4800   0.98960615   -1314.8779    6.1028394    21843.153     3.185205    27.953645 
    4810   0.98945375   -1314.8681   -4.4237725     21850.22    3.1841748    27.956659 
    4820   0.98966302   -1314.8585    -4.297179    21850.235    3.1841727    27.956665 
    4830   0.99017913   -1314.8491    6.2536294    21843.349    3.1851764    27.953728 
    4840   0.99045196   -1314.8393    1.6768559    21846.474    3.1847208    27.955062 
    4850   0.99067066    -1314.829   -7.0149521    21852.332     3.183867     27.95756 
    4860   0.99120413   -1314.8193    1.2477595    21846.956    3.1846505    27.955267 
    4870   0.99159592    -1314.809    6.5333049    21843.561    3.1851455    27.953819 
    4880   0.99155531   -1314.7982   -4.0252941    21850.652    3.1841119    27.956843 
    4890   0.99155675   -1314.7872    -4.895842    21851.333    3.1840126    27.957134 
    4900   0.99158973   -1314.7762      6.10647    21844.155    3.1850588    27.954072 
    4910   0.99108643   -1314.7645    2.3465525    21846.751    3.1846804     27.95518 
    4920   0.99021495   -1314.7519   -7.1463005    21853.154    3.1837473     27.95791 
    4930     0.989406   -1314.7397   0.63075267    21848.115    3.1844816    27.955761 
    4940   0.98825327   -1314.7265    6.9299211    21844.068    3.1850716    27.954035 
    4950   0.98645644   -1314.7126   -3.5677927    21851.141    3.1840406    27.957052 
    4960    0.9845283   -1314.6981   -5.4846377    21852.541    3.1838366    27.957649 
    4970   0.98254541   -1314.6834    5.8954077    21845.139    3.1849154    27.954492 
    4980   0.97996789   -1314.6678    3.0334629    21847.171    3.1846191    27.955359 
    4990   0.97696856   -1314.6509   -7.2204851    21854.112    3.1836078    27.958319 
    5000   0.97404689   -1314.6344 -0.028110006    21849.495    3.1842805     27.95635 
    5010   0.97085818   -1314.6166     7.285467    21844.813    3.1849629    27.954353 
    5020   0.96709407   -1314.5981   -3.0512043     21851.82    3.1839417    27.957341 
    5030   0.96327874   -1314.5787    -6.057794    21853.984    3.1836263    27.958264 
    5040   0.95954531   -1314.5592    5.6163984    21846.428    3.1847275    27.955042 
    5050   0.95535662   -1314.5386    3.7319564    21847.859    3.1845189    27.955652 
    5060   0.95084434   -1314.5168   -7.2324356    21855.317    3.1834323    27.958833 
    5070   0.94651792   -1314.4952  -0.72669205      21851.2     3.184032    27.957077 
    5080   0.94205008   -1314.4725    7.5924609    21845.898    3.1848048    27.954816 
    5090   0.93708277   -1314.4492   -2.4757319    21852.775    3.1838026    27.957749 
    5100   0.93210048   -1314.4249   -6.6088434    21855.734    3.1833715    27.959011 
    5110   0.92725787   -1314.4008    5.2658317    21848.089    3.1844854     27.95575 
    5120   0.92201054   -1314.3757    4.4360387    21848.867     3.184372    27.956082 
    5130   0.91644421   -1314.3496   -7.1766785      21856.8    3.1832162    27.959465 
    5140   0.91108364   -1314.3239   -1.4617339     21853.25    3.1837334    27.957951 
    5150   0.90565306   -1314.2974    7.8435731    21847.335    3.1845954    27.955428 
    5160   0.89979251   -1314.2705   -1.8416922    21853.998    3.1836244     27.95827 
    5170   0.89399021   -1314.2428   -7.1300814    21857.762    3.1830762    27.959875 
    5180   0.88847458   -1314.2158    4.8412075    21850.084    3.1841946    27.956601 
    5190   0.88275389   -1314.1881     5.139341    21850.148    3.1841852    27.956629 
    5200   0.87690935   -1314.1598   -7.0473822    21858.493    3.1829697    27.960187 
    5210   0.87151076   -1314.1076   -2.0913281    21855.571    3.1833952    27.958941 
    5220   0.86636184   -1314.0797    7.9377931    21849.197    3.1843239    27.956223 
    5230   0.86109761   -1314.0519   -1.2486481    21855.551    3.1833981    27.958933 
    5240   0.85619141   -1314.0238   -7.4775429    21859.956    3.1827566    27.960811 
    5250    0.8519159   -1313.9968    4.3829498    21852.361    3.1838629    27.957572 
    5260   0.84781406   -1313.9695    5.6798326    21851.772    3.1839487    27.957321 
    5270   0.84393422   -1313.9423   -6.8166762    21860.327    3.1827026    27.960969 
    5280   0.84084187   -1313.9163   -2.8751784    21857.977    3.1830448    27.959967 
    5290   0.83838372   -1313.8905    8.0645297    21850.992    3.1840623    27.956988 
    5300   0.83618833   -1313.8654  -0.51557611    21856.935    3.1831965    27.959523 
    5310    0.8346921   -1313.8405   -7.9175042    21862.105    3.1824438    27.961727 
    5320   0.83421448   -1313.7928    3.9723003    21854.566    3.1835415    27.958513 
    5330   0.83435563   -1313.7455    6.4152617    21853.293    3.1837271     27.95797 
    5340   0.83507134   -1313.6988   -6.6647452    21862.306    3.1824145    27.961813 
    5350   0.83691486   -1313.6784   -3.7217278    21860.581    3.1826656    27.961077 
    5360   0.83979121   -1313.6589    8.1303383    21852.946    3.1837776    27.957822 
    5370   0.84323893   -1313.6162   0.25542633    21858.477     3.182972     27.96018 
    5380   0.84763387   -1313.5985   -8.4359312    21864.452    3.1821022    27.962728 
    5390   0.85333607   -1313.6079    3.1013119    21856.885    3.1832038    27.959501 
    5400   0.85989367   -1313.5688    7.1934148    21854.456    3.1835576    27.958466 
    5410    0.8671759   -1313.5065   -6.1273341    21863.663     3.182217    27.962391 
    5420   0.87575212   -1313.4706    -4.811614    21863.047    3.1823067    27.962129 
    5430   0.88550475   -1313.4608    8.0286975    21854.676    3.1835256    27.958559 
    5440   0.89587039    -1313.428    1.5916604    21859.173    3.1828706    27.960477 
    5450   0.90712941    -1313.396   -8.6313274    21866.182    3.1818504    27.963465 
    5460   0.91970228   -1313.3914    1.9989799    21859.225     3.182863    27.960499 
    5470   0.93300444   -1313.3876    7.8333746    21855.448    3.1834131    27.958889 
    5480   0.94671087   -1313.3854   -5.3498788    21864.269    3.1821288     27.96265 
    5490   0.96134305   -1313.3849   -5.6966771     21864.56    3.1820865    27.962774 
    5500   0.97680784   -1313.4108    7.6019027    21855.682    3.1833791    27.958988 
    5510   0.99235736   -1313.3889    2.6751253    21859.076    3.1828847    27.960436 
    5520    1.0080777   -1313.3924   -8.7824829    21866.701    3.1817749    27.963686 
    5530    1.0243881   -1313.4478   0.73828392    21860.173    3.1827251    27.960903 
    5540    1.0406561   -1313.4548    8.6831454    21854.889    3.1834946     27.95865 
    5550    1.0562507   -1313.4631   -4.4232133    21863.547    3.1822338    27.962342 
    5560    1.0716003   -1313.4728   -6.9160835    21865.154    3.1820001    27.963027 
    5570    1.0866055   -1313.4846    7.3209901    21855.639    3.1833854     27.95897 
    5580    1.1002294   -1313.4727    4.0107869    21857.848    3.1830636    27.959912 
    5590    1.1123198   -1313.4858   -9.0622732    21866.427    3.1818147     27.96357 
    5600    1.1232453   -1313.5017  -0.28032291    21860.472    3.1826815    27.961031 
    5610      1.13223   -1313.5179    9.2184144    21854.039    3.1836184    27.958288 
    5620    1.1384333   -1313.5353    -3.625811    21862.399    3.1824009    27.961853 
    5630    1.1423581   -1313.5535   -7.7887374    21864.991    3.1820237    27.962958 
    5640    1.1442578   -1313.5738    6.8801083    21855.064    3.1834691    27.958725 
    5650    1.1435613   -1313.6191    4.9155485    21856.055    3.1833247    27.959147 
    5660    1.1407911   -1313.6402   -8.8683233    21864.979    3.1820255    27.962952 
    5670    1.1373966   -1313.6882   -1.3890583    21859.668    3.1827986    27.960688 
    5680    1.1337049    -1313.712     9.555571    21852.161     3.183892    27.957487 
    5690    1.1296528   -1313.7368   -2.6453292    21859.981    3.1827529    27.960822 
    5700    1.1262949   -1313.7866   -8.5866648    21863.552    3.1822332    27.962344 
    5710    1.1241832   -1313.8385    6.2255785    21853.337    3.1837206    27.957989 
    5720    1.1225381   -1313.8661    6.0475439     21853.16    3.1837464    27.957913 
    5730     1.121228   -1313.8939   -8.8244174    21862.724    3.1823537    27.961991 
    5740    1.1210092   -1313.9973   -2.7906334    21858.103    3.1830265    27.960021 
    5750    1.1215353   -1314.0273    10.174284    21849.195    3.1843241    27.956222 
    5760    1.1218696    -1314.058   -1.4926312    21856.597    3.1832458    27.959378 
    5770    1.1224926   -1314.0884   -9.6212271    21861.663    3.1825081    27.961539 
    5780    1.1238263   -1314.1452    5.3823312    21851.274    3.1840212    27.957109 
    5790    1.1250563   -1314.2016    7.4688752    21849.454    3.1842864    27.956333 
    5800    1.1258207   -1314.2331   -8.4176456    21859.645    3.1828019    27.960678 
    5810    1.1269182   -1314.2656   -3.9965446    21856.367    3.1832793    27.959281 
    5820    1.1281032   -1314.2977    10.149857    21846.656    3.1846942    27.955139 
    5830    1.1284905   -1314.3297   -0.2628655    21853.207    3.1837396    27.957933 
    5840    1.1285394   -1314.3605   -10.101744    21859.398    3.1828379    27.960573 
    5850     1.128804   -1314.3926    4.4941166    21849.383    3.1842968    27.956302 
    5860     1.128463   -1314.4232    8.2798017    21846.548      3.18471    27.955093 
    5870     1.127201   -1314.4528   -8.0113657    21857.018    3.1831845    27.959558 
    5880    1.1258932   -1314.4825   -4.9697158     21854.68     3.183525    27.958561 
    5890     1.124421   -1314.5114    10.156922    21844.354      3.18503    27.954157 
    5900    1.1219117   -1314.5395    0.7185105    21850.294     3.184164    27.956691 
    5910    1.1188309   -1314.5657   -10.512712     21857.45    3.1831216    27.959742 
    5920    1.1158495   -1314.5928    3.6869921    21847.748     3.184535    27.955605 
    5930    1.1122296   -1314.6179    9.0380855    21843.934    3.1850911    27.953978 
    5940    1.1076421   -1314.6417   -7.5168217    21854.631    3.1835321     27.95854 
    5950    1.1030092   -1314.6651   -5.9312985    21853.323    3.1837227    27.957982 
    5960    1.0983253   -1314.6876     10.06593    21842.488     3.185302    27.953361 
    5970    1.0927427   -1314.7091    1.7253421    21847.768    3.1845322    27.955613 
    5980    1.0867067   -1314.7284   -10.841334    21855.876    3.1833508    27.959071 
    5990    1.0809603   -1314.7487    2.8153814    21846.607    3.1847013    27.955118 
    6000    1.0748405   -1314.7668    9.7364651    21841.828    3.1853982     27.95308 
    6010    1.0679884   -1314.7838   -6.9366905    21852.672    3.1838175    27.957705 
    6020    1.0613187   -1314.8002   -6.8729681    21852.446    3.1838504    27.957609 
    6030    1.0549058    -1314.816    9.8767093    21841.187    3.1854917    27.952806 
    6040    1.0479157   -1314.8308    2.7508019    21845.734    3.1848287    27.954746 
    6050    1.0407333   -1314.8435   -11.082979     21854.75    3.1835148    27.958591 
    6060    1.0341282   -1314.8574    1.8858795    21846.008    3.1847887    27.954863 
    6070    1.0274964   -1314.8692    10.369616    21840.266    3.1856261    27.952413 
    6080    1.0204291   -1314.8804   -6.2727822    21851.152     3.184039    27.957057 
    6090    1.0137965   -1314.8908    -7.786408    21852.038    3.1839099    27.957435 
    6100    1.0077314   -1314.9011     9.589895    21840.428    3.1856025    27.952482 
    6110    1.0014055   -1314.9105    3.7887678     21844.16    3.1850581    27.954074 
    6120     0.995125    -1314.918   -11.233322    21854.022    3.1836209    27.958281 
    6130   0.98966883   -1314.9269   0.90489855    21845.889     3.184806    27.954812 
    6140   0.98448803   -1314.9339    10.932397    21839.184    3.1857839    27.951951 
    6150   0.97911988   -1314.9406    -5.527324    21850.001    3.1842067    27.956566 
    6160   0.97438509   -1314.9466    -8.663976    21852.017    3.1839129    27.957426 
    6170   0.97047556   -1314.9527    9.2058159    21840.132    3.1856456    27.952356 
    6180   0.96656946   -1314.9581    4.8325765    21842.971    3.1852316    27.953567 
    6190   0.96289724   -1314.9619    -11.28885    21853.607    3.1836813    27.958104 
    6200   0.96025612   -1314.9671  -0.12170366    21846.166    3.1847658     27.95493 
    6210   0.95815378   -1314.9706    11.419115    21838.506    3.1858828    27.951662 
    6220   0.95607186   -1314.9742    -4.703359    21849.142    3.1843319    27.956199 
    6230   0.95479123   -1314.9768   -9.4986331    21852.301    3.1838715    27.957547 
    6240    0.9545666   -1314.9801    8.7243882    21840.222    3.1856325    27.952394 
    6250   0.95456605   -1314.9826    5.8748703    21842.094    3.1853595    27.953193 
    6260   0.95493388   -1314.9837   -11.246638     21853.43    3.1837072    27.958028 
    6270   0.95648247   -1314.9864   -1.1883252    21846.759    3.1846792    27.955183 
    6280   0.95874371   -1314.9876    11.823654    21838.162     3.185933    27.951515 
    6290   0.96109306    -1314.989   -3.8045078    21848.502    3.1844252    27.955926 
    6300    0.9642388   -1314.9894   -10.283545     21852.81    3.1837975    27.957764 
    6310     0.968453   -1314.9909    8.1454213    21840.621    3.1855742    27.952565 
    6320   0.97280933   -1314.9916    6.9078012    21841.455    3.1854526    27.952921 
    6330   0.97729237   -1314.9911   -11.104053    21853.404    3.1837109    27.958017 
    6340   0.98268138   -1314.9922   -2.2892027     21847.58    3.1845596    27.955533 
    6350   0.98846172    -1314.992    12.139789    21838.064    3.1859473    27.951474 
    6360   0.99382921   -1314.9922   -2.8347622    21847.988    3.1845002    27.955707 
    6370   0.99939761   -1314.9913   -11.011509    21853.435    3.1837064     27.95803 
    6380    1.0054601   -1314.9919    7.4694803     21841.22    3.1854869     27.95282 
    6390    1.0109992   -1314.9916    7.9235135    21840.944    3.1855271    27.952703 
    6400    1.0158812   -1314.9903     -10.8581    21853.405    3.1837107    27.958018 
    6410    1.0209399   -1314.9905   -3.4168307    21848.492    3.1844266    27.955922 
    6420    1.0257151   -1314.9898    12.362476    21838.081    3.1859449    27.951481 
    6430    1.0293287   -1314.9894   -1.7980316     21847.46    3.1845771    27.955482 
    6440    1.0324152   -1314.9878   -11.673616    21854.027    3.1836202    27.958283 
    6450     1.035411   -1314.9881    6.6996554    21841.871     3.185392    27.953098 
    6460    1.0373291   -1314.9872    8.9142713     21840.42    3.1856035    27.952479 
    6470    1.0380099   -1314.9856   -10.505725    21853.289    3.1837276    27.957968 
    6480    1.0384085   -1314.9853   -4.5612972    21849.353    3.1843011     27.95629 
    6490    1.0382033   -1314.9842    12.487562    21838.085    3.1859442    27.951483 
    6500    1.0365229   -1314.9835  -0.69992591    21846.804    3.1846728    27.955202 
    6510    1.0340507   -1314.9813   -12.260649    21854.471    3.1835555    27.958472 
    6520    1.0314044   -1314.9812    5.8405244    21842.476    3.1853037    27.953356 
    6530    1.0277163   -1314.9797    9.8707538    21839.811    3.1856924    27.952219 
    6540    1.0228559   -1314.9776   -10.045855    21852.991     3.183771    27.957841 
    6550    1.0179118   -1314.9765   -5.7120048    21850.111    3.1841907    27.956613 
    6560    1.0127643   -1314.9747    12.510793    21838.053    3.1859489    27.951469 
    6570    1.0066229   -1314.9732    0.4515176    21846.016    3.1847876    27.954866 
    6580     1.000209     -1314.97   -12.764501    21854.773    3.1835114    27.958601 
    6590   0.99429108    -1314.969    4.8969693    21843.065    3.1852179    27.953607 
    6600   0.98812152   -1314.9663    10.782314    21839.174    3.1857854    27.951947 
    6610   0.98153716   -1314.9632   -9.4796135    21852.583    3.1838305    27.957667 
    6620   0.97562406   -1314.9606   -6.8594303    21850.846    3.1840836    27.956926 
    6630   0.97034647   -1314.9575    12.427191    21838.092    3.1859431    27.951486 
    6640   0.96487811   -1314.9546    1.6466215    21845.222    3.1849033    27.954528 
    6650   0.95981992   -1314.9497    -13.17911    21855.063    3.1834692    27.958725 
    6660   0.95594167   -1314.9471    3.8725594    21843.776    3.1851141    27.953911 
    6670   0.95250679   -1314.9425    11.637945    21838.667    3.1858594    27.951731 
    6680   0.94922609   -1314.9377   -8.8088989    21852.222    3.1838832    27.957513 
    6690   0.94711219    -1314.933   -7.9954232    21851.712    3.1839574    27.957295 
    6700    0.9461664   -1314.9279     12.23199    21838.365    3.1859033    27.951602 
    6710   0.94548825   -1314.9228    2.8770856    21844.587    3.1849959    27.954257 
    6720   0.94553525   -1314.9156     -13.4983    21855.492    3.1834068    27.958907 
    6730   0.94704724   -1314.9106    2.7708334     21844.76    3.1849706     27.95433 
    6740   0.94921017   -1314.9035     12.42837    21838.442    3.1858922    27.951635 
    6750   0.95148964   -1314.8962   -8.0342312    21852.048    3.1839084    27.957439 
    6760   0.95469936   -1314.8885   -9.1122212    21852.839    3.1837932    27.957776 
    6770   0.95869275   -1314.8807    11.920434    21839.001    3.1858105    27.951874 
    6780   0.96227485   -1314.8726     4.135315    21844.232    3.1850476    27.954105 
    6790   0.96561185   -1314.8622   -13.716334    21856.161    3.1833093    27.959193 
    6800   0.96934183    -1314.854    1.5942403    21846.108    3.1847742    27.954905 
    6810   0.97256166   -1314.8435    13.144028    21838.582    3.1858717    27.951695 
    6820   0.97462672   -1314.8329   -7.1559958    21852.123    3.1838975    27.957471 
    6830    0.9764498   -1314.8215   -10.201508    21854.261    3.1835861    27.958382 
    6840   0.97812733   -1314.8105    11.489074    21840.023    3.1856615    27.952309 
    6850   0.97863454   -1314.7988    5.4150408    21844.161     3.185058    27.954075 
    6860   0.97833441    -1314.785   -13.824892    21857.047    3.1831803     27.95957 
    6870   0.97819215   -1314.7735    0.3493815    21847.779    3.1845306    27.955618 
    6880   0.97756602   -1314.7597    13.777584    21839.044    3.1858043    27.951892 
    6890    0.9759195   -1314.7463   -6.1735844    21852.385    3.1838594    27.957582 
    6900   0.97430266   -1314.7318   -11.251731    21855.903    3.1833469    27.959083 
    6910   0.97299154   -1314.7183    10.936186    21841.359    3.1854666     27.95288 
    6920   0.97099818   -1314.7041    6.7073575    21844.306    3.1850369    27.954137 
    6930   0.96863698   -1314.6882   -13.817176    21858.067    3.1830317    27.960006 
    6940   0.96692583   -1314.6748  -0.95717286    21849.691    3.1842519    27.956434 
    6950   0.96526658   -1314.6594    14.318408    21839.752     3.185701    27.952194 
    6960   0.96301724   -1314.6448   -5.0904488    21852.751    3.1838061    27.957738 
    6970   0.96115406    -1314.629   -12.252403    21857.667      3.18309    27.959835 
    6980   0.95999462    -1314.615    10.259251    21842.913    3.1852399    27.953543 
    6990   0.95849342   -1314.6003    8.0012493    21844.566     3.184999    27.954248 
    7000   0.95681858   -1314.5844   -13.686961    21859.103    3.1828809    27.960447 
    7010   0.95598104   -1314.5711   -2.3175245    21851.714    3.1839572    27.957296 
    7020   0.95541236   -1314.5563    14.756567    21840.579    3.1855804    27.952547 
    7030   0.95435274   -1314.5426   -3.9100649    21853.079    3.1837582    27.957879 
    7040   0.95370744   -1314.5278   -13.191671    21859.393    3.1828386    27.960571 
    7050   0.95387831   -1314.5154    9.4576914    21844.528    3.1850045    27.954231 
    7060   0.95381173   -1314.5023    9.2857943    21844.784    3.1849672    27.954341 
    7070   0.95357268   -1314.4886   -13.427903    21859.978    3.1827534     27.96082 
    7080   0.95422867   -1314.4774   -3.7218575    21853.666    3.1836727    27.958129 
    7090   0.95530958   -1314.4652    15.082897    21841.355    3.1854673    27.952878 
    7100   0.95597863   -1314.4546   -2.6369994    21853.196    3.1837411    27.957928 
    7110   0.95710127   -1314.4426   -14.056862    21860.895    3.1826199    27.961211 
    7120   0.95919883   -1314.4338    8.5326809    21846.026    3.1847861     27.95487 
    7130   0.96121559   -1314.4242    10.548957    21844.796    3.1849655    27.954346 
    7140   0.96308919   -1314.4144   -13.034738    21860.522    3.1826742    27.961052 
    7150   0.96592644   -1314.4072   -5.1587609    21855.378    3.1834233    27.958859 
    7160   0.96933239   -1314.3993    15.288429    21841.929    3.1853835    27.953123 
    7170   0.97234039   -1314.3931   -1.2780665    21852.957     3.183776    27.957827 
    7180   0.97572893   -1314.3855   -14.835296    21862.025    3.1824554    27.961693 
    7190   0.98011339   -1314.3815    7.4868802    21847.276    3.1846039    27.955403 
    7200   0.98439635   -1314.3765    11.777293    21844.489    3.1850102    27.954215 
    7210   0.98834353   -1314.3717    -12.50386    21860.621    3.1826598    27.961094 
    7220   0.99308621    -1314.369   -6.6154677    21856.742    3.1832246    27.959441 
    7230   0.99829643   -1314.3661    15.364847     21842.22     3.185341    27.953247 
    7240    1.0028547   -1314.3648   0.15791463    21852.294    3.1838726    27.957544 
    7250    1.0074436   -1314.3617   -15.514445    21862.712    3.1823555    27.961986 
    7260     1.012783   -1314.3626    6.3248287    21848.225    3.1844655    27.955808 
    7270    1.0177357    -1314.362    12.956563     21843.84    3.1851049    27.953938 
    7280    1.0218919   -1314.3617    -11.83348    21860.255    3.1827131    27.960938 
    7290    1.0264148    -1314.363   -8.0781043    21857.744    3.1830787    27.959868 
    7300    1.0310579   -1314.3643    15.304744    21842.244    3.1853376    27.953257 
    7310    1.0345595   -1314.3667     1.659883    21851.238    3.1840265    27.957093 
    7320    1.0375083   -1314.3671   -16.082749    21862.987    3.1823154    27.962103 
    7330    1.0407348   -1314.3714      5.05256    21848.924    3.1843636    27.956107 
    7340    1.0430873   -1314.3736    14.071565    21842.923    3.1852385    27.953547 
    7350    1.0439983   -1314.3763   -11.024399    21859.502    3.1828228    27.960617 
    7360    1.0446601   -1314.3798   -9.5324331    21858.462    3.1829741    27.960174 
    7370    1.0449362   -1314.3834    15.101621      21842.1    3.1853586    27.953196 
    7380    1.0434918   -1314.3877    3.2144663    21849.903     3.184221    27.956524 
    7390    1.0408682   -1314.3896   -16.530037    21862.953    3.1823204    27.962089 
    7400    1.0380717   -1314.3954    3.6779081     21849.48    3.1842827    27.956343 
    7410    1.0341165   -1314.3986    15.107186    21841.864     3.185393    27.953095 
    7420    1.0285084   -1314.4025   -10.079234    21858.478    3.1829718    27.960181 
    7430    1.0226881   -1314.4064   -10.962735    21859.001    3.1828957    27.960404 
    7440    1.0169563   -1314.4108     14.75217    21841.906    3.1853868    27.953113 
    7450     1.010322   -1314.4155    4.8084531    21848.413    3.1844382    27.955888 
    7460    1.0035796   -1314.4176   -16.845454     21862.72    3.1823542    27.961989 
    7470   0.99809201   -1314.4235    2.2126278    21850.006     3.184206    27.956568 
    7480   0.99315821   -1314.4267    16.050611    21840.801     3.185548    27.952641 
    7490   0.98823977   -1314.4308   -9.0011673    21857.327    3.1831395     27.95969 
    7500   0.98460883   -1314.4341   -12.353124    21859.502    3.1828228    27.960617 
    7510   0.98243083   -1314.4384    14.253336    21841.829     3.185398     27.95308 
    7520   0.98036009   -1314.4424    6.4264289    21846.956    3.1846506    27.955267 
    7530   0.97866148   -1314.4438   -17.022374    21862.473    3.1823901    27.961884 
    7540   0.97835378   -1314.4487   0.66389181    21850.694    3.1841057    27.956861 
    7550   0.97847772   -1314.4505    16.886281    21839.942    3.1856733    27.952275 
    7560   0.97812742   -1314.4531   -7.7958252    21856.249    3.1832964     27.95923 
    7570   0.97836806   -1314.4541   -13.691766    21860.148    3.1827287    27.960893 
    7580   0.97938995   -1314.4562    13.601272    21842.054    3.1853653    27.953176 
    7590   0.97979004   -1314.4573     8.056493    21845.711     3.184832    27.954736 
    7600   0.97974644   -1314.4556   -17.051876    21862.369    3.1824054     27.96184 
    7610   0.98039838   -1314.4568  -0.95883107    21851.691    3.1839605    27.957287 
    7620    0.9809128   -1314.4544    17.603912     21839.44    3.1857466    27.952061 
    7630   0.98035531   -1314.4528   -6.4645394    21855.389    3.1834217    27.958863 
    7640   0.97985478   -1314.4486   -14.964602    21861.074    3.1825939    27.961288 
    7650   0.97979172   -1314.4457    12.793963    21842.724    3.1852675    27.953462 
    7660   0.97882422   -1314.4411    9.6865124    21844.833      3.18496    27.954362 
    7670   0.97713002   -1314.4336   -16.926498    21862.549    3.1823791    27.961916 
    7680   0.97600195   -1314.4287   -2.6475129     21853.14    3.1837494    27.957904 
    7690    0.9747632   -1314.4202    18.189982     21839.45    3.1857451    27.952065 
    7700   0.97248452   -1314.4125   -5.0124463    21854.892    3.1834942    27.958651 
    7710     0.970347   -1314.4017   -16.159389    21862.405    3.1824001    27.961855 
    7720   0.96890029   -1314.3929    11.827683    21843.966    3.1850865    27.953991 
    7730   0.96685644   -1314.3819    11.301712    21844.438    3.1850177    27.954193 
    7740    0.9643327   -1314.3687   -16.639643    21863.098    3.1822992    27.962151 
    7750   0.96266472   -1314.3579   -4.3935874    21855.101    3.1834636    27.958741 
    7760   0.96121629   -1314.3441    18.630509    21840.022    3.1856617    27.952309 
    7770   0.95889449   -1314.3316   -3.4452557    21854.773    3.1835114    27.958601 
    7780   0.95669153   -1314.3159    -17.26296    21864.114    3.1821514    27.962583 
    7790   0.95508427   -1314.3035      10.6995    21845.728    3.1848296    27.954743 
    7800   0.95261684   -1314.2889     12.88651    21844.445    3.1850166    27.954196 
    7810   0.94915396   -1314.2732   -16.184721    21863.882    3.1821851    27.962485 
    7820   0.94600857   -1314.2602   -6.1865356    21857.397    3.1831293     27.95972 
    7830   0.94272146   -1314.2451    18.912631    21840.949    3.1855264    27.952705 
    7840    0.9383482   -1314.2324   -1.7686266    21854.778    3.1835108    27.958603 
    7850   0.93414088   -1314.2169   -18.258289    21865.886    3.1818935    27.963339 
    7860   0.93108845    -1314.206    9.4130283    21847.666    3.1845471     27.95557 
    7870   0.92819268   -1314.1935    14.428149    21844.488    3.1850104    27.954214 
    7880   0.92554294   -1314.1813   -15.551484     21864.49    3.1820966    27.962744 
    7890   0.92470815   -1314.1721   -8.0063311    21859.592    3.1828096    27.960656 
    7900   0.92546944   -1314.1622    19.029121    21841.809    3.1854011    27.953071 
    7910   0.92674254   -1314.1554  0.010451137    21854.482    3.1835538    27.958477 
    7920   0.92946593   -1314.1463   -19.125718    21867.289    3.1816893    27.963937 
    7930   0.93448324    -1314.143    7.9750819    21849.375     3.184298    27.956299 
    7940   0.94049498   -1314.1382    15.907748    21844.198    3.1850526    27.954091 
    7950   0.94703776   -1314.1347   -14.737121    21864.562    3.1820862    27.962775 
    7960   0.95537408   -1314.1341   -9.8356183    21861.341     3.182555    27.961401 
    7970   0.96512052   -1314.1337    18.967747    21842.297    3.1853299     27.95328 
    7980   0.97475605   -1314.1364    1.8768233    21853.606    3.1836814    27.958103 
    7990   0.98490233   -1314.1367   -19.849435    21868.042    3.1815798    27.964258 
    8000   0.99646799   -1314.1434    6.3931205    21850.597    3.1841198     27.95682 
    8010    1.0080597    -1314.148     17.30548    21843.357    3.1851753    27.953732 
    8020    1.0189585   -1314.1545   -13.740169    21863.883     3.182185    27.962485 
    8030    1.0305437   -1314.1629   -11.652922    21862.438    3.1823954    27.961869 
    8040     1.042613   -1314.1721    18.721331    21842.251    3.1853365     27.95326 
    8050    1.0534416   -1314.1837     3.814154     21852.02    3.1839126    27.957427 
    8060    1.0635386   -1314.1925   -20.413257     21868.02    3.1815829    27.964249 
    8070    1.0739953   -1314.2078    4.6795802    21851.243    3.1840258    27.957095 
    8080    1.0833155   -1314.2203     18.59964    21841.924    3.1853842    27.953121 
    8090    1.0904484   -1314.2346   -12.565905    21862.433    3.1823961    27.961867 
    8100    1.0967825   -1314.2498   -13.436865    21862.867    3.1823329    27.962052 
    8110    1.1022318   -1314.2663    18.282893    21841.698    3.1854171    27.953024 
    8120    1.1049404   -1314.2843    5.7981985    21849.777    3.1842394     27.95647 
    8130    1.1055233   -1314.2992   -20.805569    21867.265    3.1816929    27.963927 
    8140    1.1057267   -1314.3205    2.8512022    21851.355    3.1840094    27.957143 
    8150    1.1048475   -1314.3383    19.769672    21839.975    3.1856685    27.952289 
    8160    1.1026066   -1314.3584    -11.22202    21860.281    3.1827094    27.960949 
    8170    1.1013641   -1314.3783   -15.159492    21862.683    3.1823597    27.961973 
    8180    1.1019441   -1314.4002    17.656186    21840.722    3.1855596    27.952608 
    8190    1.1027736    -1314.423    7.8068032    21846.999    3.1846443    27.955285 
    8200    1.1041962   -1314.4427   -21.013783    21865.899    3.1818916    27.963345 
    8210     1.107558   -1314.4687   0.93002307    21851.082    3.1840492    27.957027 
    8220    1.1114191   -1314.4909    20.794081    21837.717    3.1859978    27.951326 
    8230    1.1142777   -1314.5157   -9.7258622    21857.661    3.1830909    27.959832 
    8240    1.1174693   -1314.5391   -16.803882    21862.114    3.1824424    27.961731 
    8250    1.1213016   -1314.5652    16.836552     21839.57    3.1857275    27.952116 
    8260    1.1238031   -1314.5911    9.8107947    21843.947    3.1850892    27.953984 
    8270    1.1251779   -1314.6137   -21.034435    21864.147    3.1821465    27.962598 
    8280    1.1271811    -1314.642   -1.0664243    21850.614    3.1841175    27.956827 
    8290     1.128843   -1314.6659    21.659798    21835.335    3.1863454     27.95031 
    8300    1.1288533   -1314.6922    -8.084447    21854.734    3.1835172    27.958584 
    8310    1.1288257   -1314.7156   -18.344476    21861.288    3.1825627    27.961379 
    8320    1.1294595   -1314.7419    15.835108     21838.38    3.1859012    27.951608 
    8330    1.1288579   -1314.7667    11.794577    21840.786    3.1855502    27.952635 
    8340    1.1270954   -1314.7881   -20.859468    21862.183    3.1824324     27.96176 
    8350    1.1259857   -1314.8141   -3.1169442    21850.145    3.1841857    27.956627 
    8360    1.1246066   -1314.8352    22.353331     21833.08    3.1866746    27.949347 
    8370    1.1214486   -1314.8584   -6.3143258    21851.785    3.1839468    27.957327 
    8380    1.1180151   -1314.8773   -19.766791    21860.495    3.1826781    27.961041 
    8390    1.1151362   -1314.8996    14.653954    21837.469    3.1860341     27.95122 
    8400    1.1109437    -1314.919    13.733372    21837.865    3.1859763    27.951389 
    8410    1.1054145   -1314.9351   -20.489432    21860.343    3.1827004    27.960976 
    8420    1.1004596   -1314.9548   -5.2053994    21849.997    3.1842074    27.956564 
    8430    1.0953484   -1314.9696     22.86167    21831.279    3.1869374    27.948579 
    8440    1.0885613   -1314.9864    -4.430447    21849.131    3.1843335    27.956195 
    8450    1.0815631   -1314.9981   -21.056032    21860.016     3.182748    27.960836 
    8460    1.0753433   -1315.0137    13.298687      21837.1    3.1860878    27.951063 
    8470    1.0681444   -1315.0256    15.607699     21835.44    3.1863302    27.950354 
    8480    1.0598542   -1315.0349   -19.923289    21858.844    3.1829185    27.960337 
    8490     1.052398   -1315.0471   -7.3151618    21850.349     3.184156    27.956714 
    8500    1.0452145    -1315.055    23.174909    21830.103    3.1871091    27.948077 
    8510    1.0367809   -1315.0651   -2.4460937    21846.914    3.1846566    27.955249 
    8520    1.0284514   -1315.0697   -22.198125    21859.941    3.1827588    27.960804 
    8530    1.0213138   -1315.0792    11.776075     21837.34    3.1860528    27.951165 
    8540    1.0137273   -1315.0846    17.400421    21833.559    3.1866047    27.949551 
    8550    1.0054605   -1315.0885   -19.159447    21857.694     3.183086    27.959847 
    8560   0.99838868   -1315.0949   -9.4287573    21851.169    3.1840366    27.957064 
    8570   0.99210154   -1315.0978    23.285878    21829.504    3.1871966    27.947821 
    8580   0.98505769   -1315.1034  -0.37298286    21845.064    3.1849263     27.95446 
    8590   0.97845194   -1315.1033   -23.178126    21860.162    3.1827267    27.960899 
    8600    0.9734408   -1315.1092     10.09523    21838.063    3.1859474    27.951473 
    8610   0.96848037   -1315.1106    19.095966    21832.095    3.1868183    27.948927 
    8620   0.96318436   -1315.1117   -18.196131    21856.741    3.1832248     27.95944 
    8630   0.95935917   -1315.1147   -11.527266    21852.283    3.1838742    27.957539 
    8640   0.95673119   -1315.1152    23.188948    21829.321    3.1872234    27.947743 
    8650   0.95370369   -1315.1184    1.7763943    21843.423    3.1851657     27.95376 
    8660   0.95130026   -1315.1158   -23.981086    21860.503     3.182677    27.961044 
    8670   0.95075255   -1315.1199    8.2667044    21839.102    3.1857958    27.951917 
    8680   0.95057478    -1315.119    20.677914     21830.91    3.1869912    27.948421 
    8690   0.95019028   -1315.1188   -17.033297    21855.848    3.1833549    27.959059 
    8700    0.9513494   -1315.1193   -13.591332    21853.557    3.1836886    27.958082 
    8710   0.95388176   -1315.1182    22.878351    21829.453     3.187204      27.9478 
    8720   0.95604763   -1315.1193    3.9868668    21841.915    3.1853855    27.953117 
    8730    0.9586639   -1315.1145   -24.593442    21860.892    3.1826203     27.96121 
    8740   0.96299975   -1315.1165     6.300982    21840.411     3.185605    27.952475 
    8750    0.9674956   -1315.1126    22.127595    21829.997    3.1871245    27.948032 
    8760   0.97126725   -1315.1101   -15.673813    21855.018    3.1834757    27.958705 
    8770     0.975959   -1315.1069   -15.602656    21855.003    3.1834779    27.958699 
    8780   0.98140499   -1315.1029    22.347116    21829.949    3.1871315    27.948011 
    8790   0.98561391   -1315.1001    6.2402122    21840.612    3.1855755    27.952561 
    8800   0.98920124    -1315.091   -25.003591    21861.395    3.1825471    27.961424 
    8810   0.99352919   -1315.0888    4.2084116    21842.066    3.1853636    27.953181 
    8820   0.99703488     -1315.08    23.425046    21829.461    3.1872029    27.947803 
    8830   0.99869848   -1315.0728   -14.122541    21854.353    3.1835726    27.958422 
    8840    1.0002952   -1315.0636   -17.542096    21856.707    3.1832297    27.959426 
    8850    1.0019176   -1315.0546    21.590154     21830.91    3.1869913    27.948421 
    8860     1.001632   -1315.0458    8.5171268    21839.623    3.1857198    27.952139 
    8870    1.0001363   -1315.0309   -25.199479    21862.095    3.1824453    27.961723 
    8880   0.99909624   -1315.0227    2.0034871    21844.145    3.1850604    27.954068 
    8890   0.99718128   -1315.0075    24.551296    21829.394    3.1872127    27.947774 
    8900     0.993415   -1314.9947   -12.386067    21853.931    3.1836341    27.958242 
    8910   0.98971221   -1314.9788   -19.387759    21858.722    3.1829363    27.960285 
    8920   0.98642621   -1314.9644     20.60553    21832.397    3.1867742    27.949056 
    8930   0.98171682   -1314.9494    10.795729    21839.015    3.1858086    27.951879 
    8940   0.97624634   -1314.9289   -25.170167     21863.03    3.1823092    27.962121 
    8950   0.97179736   -1314.9151  -0.29629776    21846.673    3.1846918    27.955146 
    8960   0.96718327   -1314.8944    25.487173    21829.836     3.187148    27.947963 
    8970   0.96133862   -1314.8771   -10.473922    21853.777    3.1836566    27.958176 
    8980     0.956071   -1314.8556   -21.117114    21861.042    3.1825985    27.961274 
[...]
   37860    124.30519   -1043.1519    10059.365    19298.251    3.6052449    26.822916 
   37870    122.64586    -1043.198    10056.954    19296.859     3.605505    26.822271 
   37880    120.65864   -1042.9419    10054.935    19296.248    3.6056192    26.821987 
   37890    118.61143   -1042.7637    10050.752    19296.392    3.6055921    26.822055 
   37900    116.76108   -1042.6219    10044.635    19297.243    3.6054332    26.822449 
   37910    115.28023   -1042.8201    10034.181    19298.717    3.6051578    26.823132 
   37920    114.24915   -1043.1287    10020.738    19300.684    3.6047905    26.824043 
   37930    113.67601   -1043.8133    10002.498    19302.963    3.6043648    26.825099 
   37940    113.52501   -1044.7135    9981.2104    19305.307    3.6039271    26.826184 
   37950    113.73035   -1045.9542    9957.1729    19307.425    3.6035317    26.827165 
   37960    114.21227   -1047.3505    9933.2966    19308.991    3.6032396    26.827891 
   37970    114.88608   -1048.5755    9913.6651    19309.676    3.6031118    26.828208 
   37980    115.67263   -1049.6038    9900.0963    19309.201    3.6032005    26.827988 
   37990    116.50854   -1050.3657    9894.3364    19307.366    3.6035429    26.827138 
   38000    117.34921   -1050.8794    9896.9706    19304.075    3.6041571    26.825614 
   38010    118.16519   -1050.9792    9909.2337    19299.355    3.6050387    26.823427 
   38020    118.94397   -1050.8349    9929.4335    19293.354    3.6061599    26.820647 
   38030    119.67408   -1050.4364    9956.6271    19286.335    3.6074724    26.817394 
   38040    120.33964   -1049.9276    9988.4571    19278.658     3.608909    26.813835 
   38050    120.90891    -1049.143    10024.551     19270.75    3.6103898    26.810168 
   38060    121.33273   -1048.2425    10062.153    19263.101    3.6118234    26.806621 
   38070    121.55364   -1047.1298    10100.269    19256.226     3.613113    26.803431 
   38080    121.52004   -1045.9349    10136.243    19250.649    3.6141596    26.800843 
   38090    121.20105   -1044.5148      10169.2    19246.876    3.6148682    26.799092 
   38100     120.6059   -1043.1406    10195.215    19245.371    3.6151509    26.798394 
   38110    119.78543   -1041.7562     10212.62    19246.515    3.6149359    26.798925 
   38120    118.83074   -1040.7077     10217.12    19250.573     3.614174    26.800808 
   38130    117.85831   -1039.8318    10208.504    19257.644     3.612847    26.804089 
   38140    116.98737   -1039.4289    10184.083    19267.649    3.6109709     26.80873 
   38150    116.32166   -1039.6931    10143.015    19280.295    3.6086025    26.814594 
   38160    115.93788   -1040.6231    10087.063    19295.062    3.6058407    26.821438 
   38170    115.87687   -1041.8688    10021.608    19311.224    3.6028229    26.828925 
   38180    116.14189   -1043.4312     9950.463    19327.904    3.5997136    26.836647 
   38190    116.70268   -1045.1427      9879.14    19344.137     3.596693    26.844158 
   38200    117.50188   -1046.7176    9814.0962    19358.937    3.5939433    26.851002 
   38210    118.46002   -1048.1683    9759.4017    19371.386    3.5916335    26.856757 
   38220    119.48308   -1049.2112    9720.5481    19380.701    3.5899073    26.861061 
   38230    120.47486   -1049.3359    9703.6355     19386.31    3.5888686    26.863652 
   38240    121.34345   -1049.0137    9706.7339     19387.92    3.5885706    26.864396 
   38250    122.01668   -1048.1089    9730.9008    19385.523    3.5890143    26.863288 
   38260    122.45535   -1046.3808    9776.6682    19379.409    3.5901467    26.860464 
   38270    122.65481   -1044.1212    9839.6227     19370.16    3.5918609     26.85619 
   38280    122.63737   -1041.5264    9914.9194    19358.605    3.5940049    26.850849 
   38290    122.44402   -1039.0035    9995.4243    19345.746    3.5963938    26.844902 
   38300    122.12812   -1035.8314    10081.358    19332.685    3.5988234     26.83886 
   38310    121.74156    -1032.746    10162.488    19320.589    3.6010766    26.833261 
   38320    121.32853   -1030.1267    10231.229    19310.575     3.602944    26.828624 
   38330     120.9227   -1028.1957     10281.78    19303.599     3.604246    26.825393 
   38340    120.55213   -1026.8417    10311.711    19300.387    3.6048459    26.823905 
   38350    120.23329   -1026.2657    10317.636    19301.392    3.6046582    26.824371 
   38360    119.97632   -1026.4644    10299.046    19306.752    3.6036575    26.826853 
   38370    119.78428   -1027.3987    10257.169    19316.279    3.6018801    26.831265 
   38380    119.65267   -1028.7993    10196.264    19329.474    3.5994214    26.837373 
   38390    119.56845   -1030.8106    10118.954    19345.558    3.5964288    26.844815 
   38400      119.509   -1032.9666    10033.086    19363.518     3.593093     26.85312 
   38410    119.45233   -1035.3031    9943.5105    19382.201    3.5896295    26.861754 
   38420    119.37987   -1037.5866    9857.0207    19400.383    3.5862652    26.870151 
   38430    119.28865    -1039.566    9780.1901     19416.86    3.5832221    26.877755 
   38440    119.19612   -1041.2387    9717.1224    19430.539    3.5806994    26.884066 
   38450     119.1348   -1042.2092    9673.6959     19440.51    3.5788629    26.888664 
   38460    119.14715   -1042.8688    9649.2463    19446.106    3.5778331    26.891243 
   38470    119.27852   -1043.1335    9645.3807    19446.923    3.5776827     26.89162 
   38480    119.56615   -1042.6272    9664.7154    19442.847    3.5784328    26.889741 
   38490    120.03098   -1041.9515    9702.0828    19434.076    3.5800477    26.885697 
   38500    120.67243   -1040.9778    9756.5579    19421.075    3.5824443      26.8797 
   38510    121.46976   -1039.8067    9824.8853     19404.55    3.5854952    26.872074 
   38520    122.38174   -1038.4937    9903.4763    19385.407    3.5890359    26.863235 
   38530    123.35029   -1036.9521    9989.1674    19364.707    3.5928723     26.85367 
   38540    124.30654   -1035.3496    10076.602    19343.613    3.5967904    26.843915 
   38550    125.17613   -1033.7152    10161.135    19323.319    3.6005678    26.834525 
   38560    125.88164   -1032.3038    10236.509    19304.993    3.6039857    26.826039 
   38570    126.34565   -1031.0747    10298.813    19289.685    3.6068459    26.818946 
   38580    126.48907   -1030.3937    10341.805    19278.269    3.6089817    26.813655 
   38590    126.23917   -1030.0763    10363.881    19271.381    3.6102717    26.810461 
   38600    125.53722   -1030.3867    10361.316    19269.368    3.6106488    26.809527 
   38610    124.36529    -1031.296    10333.715    19272.258    3.6101073    26.810868 
   38620    122.79076   -1032.7011    10282.733     19279.75    3.6087045    26.814341 
   38630    120.99078   -1034.7689    10209.889    19291.213    3.6065601    26.819655 
   38640    119.22772   -1037.3173    10120.825    19305.717    3.6038507    26.826374 
   38650    117.74401   -1040.2002    10022.071    19322.092    3.6007965    26.833957 
   38660    116.66272   -1043.3117     9920.345    19339.019    3.5976447     26.84179 
   38670    115.97761   -1046.2425    9824.4597    19355.113    3.5946532    26.849234 
   38680    115.60521   -1048.7541    9741.5801    19369.043    3.5920681    26.855674 
   38690    115.44704     -1050.86    9676.3448    19379.627    3.5901062    26.860565 
   38700    115.42355   -1052.2303    9634.7222    19385.919     3.588941    26.863471 
   38710    115.48986   -1052.9501    9618.4964    19387.277    3.5886897    26.864098 
   38720     115.6307   -1052.9275    9629.2543     19383.41    3.5894055    26.862312 
   38730    115.85094     -1052.23    9666.0389    19374.398    3.5910752    26.858148 
   38740    116.16367   -1050.8525    9727.0227    19360.683    3.5936191     26.85181 
   38750    116.57936   -1048.8751    9808.5141    19343.051    3.5968948    26.843656 
   38760    117.10028   -1046.4556    9905.1792    19322.577    3.6007061    26.834181 
   38770    117.71833    -1044.091    10008.445    19300.553    3.6048149    26.823982 
   38780    118.41548   -1041.6009     10113.94    19278.383    3.6089604    26.813707 
   38790    119.16389    -1039.149    10214.636    19257.506    3.6128729    26.804025 
   38800    119.93194   -1037.2869    10300.948    19239.293     3.616293    26.795572 
   38810    120.68466   -1035.9281    10368.372    19224.945     3.618992    26.788909 
   38820    121.38672   -1035.0248    10413.141    19215.416    3.6207865    26.784483 
   38830    121.99729   -1034.9156    10430.126    19211.367    3.6215497    26.782601 
   38840    122.47261    -1035.456    10419.242    19213.096    3.6212237    26.783405 
   38850    122.76845   -1036.4113    10382.706    19220.543    3.6198208    26.786865 
   38860    122.84984   -1038.2335    10319.464    19233.291    3.6174215    26.792785 
   38870     122.7034   -1040.3363    10237.124    19250.574    3.6141737    26.800809 
   38880    122.34366    -1042.693    10140.341     19271.35    3.6102774    26.810447 
   38890    121.80632    -1045.224    10034.788    19294.359    3.6059721    26.821112 
   38900    121.14271   -1047.7063    9927.4907    19318.196    3.6015225    26.832153 
   38910    120.40982   -1049.8727    9825.8122    19341.402    3.5972014    26.842893 
   38920    119.66324   -1051.8594    9733.9614    19362.563    3.5932702    26.852679 
   38930    118.95969   -1053.2609     9659.373    19380.379     3.589967    26.860912 
   38940    118.35158   -1054.3361    9603.9903    19393.757    3.5874905    26.867091 
   38950    117.89115   -1054.6694    9573.4395    19401.872      3.58599    26.870838 
   38960    117.62104     -1054.66     9566.563    19404.216    3.5855568     26.87192 
   38970     117.5738   -1053.9006    9586.7182    19400.622    3.5862212    26.870261 
   38980    117.75694   -1052.6095    9631.8121    19391.286    3.5879477     26.86595 
   38990    118.14891   -1050.8874    9699.5086    19376.765    3.5906365    26.859242 
   39000    118.70245   -1048.6234    9787.9244     19357.94    3.5941283    26.850541 
   39010    119.35497   -1046.0505    9891.7446    19335.987     3.598209    26.840387 
   39020     120.0386    -1043.066    10006.991    19312.301    3.6026221    26.829423 
   39030    120.69358   -1039.8851    10126.546    19288.442    3.6070782     26.81837 
   39040       121.27   -1036.5662    10243.687    19266.049    3.6112708    26.807988 
   39050    121.72915   -1033.4377    10349.575    19246.725    3.6148966    26.799022 
   39060    122.04389   -1030.8813    10435.303     19231.93    3.6176776    26.792153 
   39070    122.19704   -1028.7175    10496.739    19222.876    3.6193815    26.787948 
   39080    122.18238   -1027.3677    10526.799     19220.45    3.6198383    26.786821 
   39090    122.01292   -1026.7674    10523.482    19225.141    3.6189551       26.789 
   39100    121.72181   -1027.2177    10484.135    19236.998    3.6167244    26.794507 
   39110    121.35617   -1028.4133    10412.408    19255.604    3.6132297    26.803142 
   39120    120.97171   -1030.6453     10309.78    19280.086    3.6086417    26.814497 
   39130    120.62516   -1033.2555    10186.159    19309.151    3.6032096    26.827965 
   39140    120.36485   -1036.2187    10048.342    19341.182    3.5972425    26.842791 
   39150    120.22881   -1039.6195    9903.2043    19374.319    3.5910899    26.858112 
   39160    120.24481   -1042.9642    9761.9263    19406.579    3.5851204    26.873011 
   39170    120.43399   -1046.0898    9633.0861    19435.976    3.5796977    26.886573 
   39180     120.8142   -1048.8193    9524.5555    19460.667    3.5751561    26.897953 
   39190    121.39784   -1050.9436    9443.2803    19479.064    3.5717794    26.906427 
   39200    122.18278   -1052.6823    9391.9246    19489.942    3.5697859    26.911435 
   39210    123.14597   -1053.1512    9379.3908      19492.5    3.5693174    26.912612 
   39220     124.2437   -1053.2184    9400.8892    19486.449    3.5704258    26.909827 
   39230    125.41755   -1052.2422     9460.445    19472.015    3.5730725    26.903181 
   39240    126.59992   -1050.1209    9556.5738     19449.96    3.5771241     26.89302 
   39250    127.72163   -1047.4526    9681.1221    19421.557    3.5823554    26.879923 
   39260    128.70987   -1044.0799    9829.4523    19388.512    3.5884611    26.864669 
   39270    129.49409   -1040.1257    9993.4671    19352.859    3.5950719    26.848192 
   39280    130.00603     -1035.96      10162.1     19316.85    3.6017736     26.83153 
   39290     130.1866   -1031.7008    10325.216    19282.802    3.6081333    26.815756 
   39300    129.99522   -1027.8419    10469.862    19252.946    3.6137286    26.801909 
   39310    129.41508   -1024.8783    10583.683    19229.252    3.6181813     26.79091 
   39320    128.45992   -1022.7797    10659.466    19213.288    3.6211877    26.783494 
   39330    127.18379   -1021.5996    10691.616    19206.114    3.6225402     26.78016 
   39340    125.69264   -1022.0207    10672.903    19208.216    3.6221439    26.781137 
   39350     124.1347   -1023.9018    10605.062    19219.427     3.620031    26.786346 
   39360    122.67664   -1026.9369    10494.165     19238.93    3.6163613    26.795404 
   39370    121.45608   -1031.0972    10347.082    19265.324    3.6114068    26.807652 
   39380    120.54262   -1036.1477    10174.318    19296.701    3.6055345    26.822197 
   39390    119.92555   -1041.3022    9991.6051    19330.774    3.5991792    26.837975 
   39400    119.53845   -1046.4788    9810.1633    19365.062    3.5928065    26.853834 
   39410    119.29943   -1051.1988    9643.5427    19397.063     3.586879    26.868618 
   39420    119.14076   -1055.3157    9501.8381    19424.437    3.5818243    26.881251 
   39430    119.01768    -1058.173    9397.0096    19445.171    3.5780051    26.890812 
   39440    118.90314   -1059.9318    9333.3394    19457.739    3.5756939    26.896605 
   39450    118.77839   -1060.4533    9315.1041    19461.186    3.5750607    26.898193 
   39460    118.62868    -1059.471    9345.2989    19455.195    3.5761615    26.895432 
   39470    118.43841    -1057.349     9420.301    19440.129    3.5789331    26.888488 
   39480    118.19654   -1054.0341    9537.1657    19416.989    3.5831981    26.877815 
   39490    117.89541   -1049.6463    9689.5072    19387.374    3.5886717    26.864143 
   39500    117.53841   -1044.2459    9869.1747    19353.385    3.5949742    26.848435 
   39510    117.14246   -1038.4947    10061.902    19317.492    3.6016538    26.831827 
   39520    116.74751   -1032.5717    10255.392    19282.334    3.6082208    26.815539 
   39530    116.41468   -1027.0575    10433.785    19250.542    3.6141798    26.800794 
   39540    116.22824   -1022.3644    10582.614    19224.531    3.6190698    26.788717 
   39550    116.28049   -1019.3119    10685.962    19206.297    3.6225057    26.780245 
   39560    116.65569   -1017.7352    10737.466    19197.239    3.6242148    26.776035 
   39570    117.40162   -1018.3552    10728.148    19198.061    3.6240597    26.776417 
   39580    118.51203   -1020.7449    10661.343    19208.689    3.6220546    26.781357 
   39590    119.91892   -1024.8211    10542.222    19228.287    3.6183629    26.790462 
   39600     121.4991   -1030.3333     10380.83     19255.32     3.613283    26.803011 
   39610     123.0996   -1036.7852    10191.659     19287.67    3.6072226    26.818013 
   39620    124.55468   -1043.2309    9993.7263    19322.819     3.600661    26.834293 
   39630    125.71764   -1049.2702    9802.2483    19358.079    3.5941025    26.850606 
   39640    126.47995   -1054.3434    9632.4535    19390.819    3.5880342    26.865734 
   39650    126.77844   -1057.9843    9496.9545    19418.675    3.5828871    26.878593 
   39660     126.5986   -1060.1531    9402.9406    19439.733     3.579006    26.888305 
   39670     125.9761   -1061.0219     9353.536    19452.644    3.5766305    26.894257 
   39680     124.9823   -1060.1898     9353.258     19456.69    3.5758867    26.896121 
   39690    123.71181   -1057.9458    9399.2824    19451.832    3.5767798    26.893882 
   39700    122.27695   -1054.4255    9487.4532    19438.691    3.5791978    26.887825 
   39710    120.79689   -1050.0618    9609.3657    19418.483    3.5829226    26.878504 
   39720    119.39593   -1045.0634    9756.3365    19392.894    3.5876503    26.866693 
   39730    118.19534   -1039.8654    9916.6236    19363.958    3.5930113    26.853323 
   39740     117.3017   -1034.9768    10077.058    19333.882    3.5986006    26.839414 
   39750    116.79999   -1030.8026    10225.063    19304.861    3.6040105    26.825978 
   39760    116.73938   -1027.4509    10350.834    19278.906    3.6088624     26.81395 
   39770    117.11573   -1025.6372    10441.889      19257.7    3.6128364    26.804115 
   39780    117.87013   -1025.1066     10494.86    19242.464     3.615697    26.797044 
   39790    118.89304   -1025.9975     10506.37    19233.901    3.6173068    26.793069 
   39800    120.03646   -1028.3563    10476.536    19232.159    3.6176343     26.79226 
   39810     121.1343   -1031.6493    10412.165    19236.848    3.6167526    26.794437 
   39820    122.02556   -1035.3974    10321.741    19247.119    3.6148226    26.799205 
   39830    122.57368   -1039.5373    10212.235    19261.767    3.6120736    26.806002 
   39840    122.67959   -1043.8107     10092.75     19279.33    3.6087831    26.814147 
   39850    122.29999   -1047.7772    9973.8163    19298.205    3.6052535    26.822894 
   39860    121.45285   -1050.9841    9865.5416    19316.788    3.6017851    26.831501 
   39870    120.21705    -1053.597    9772.7337    19333.599    3.5986533    26.839283 
   39880    118.72223   -1055.2535     9702.621    19347.363    3.5960932     26.84565 
   39890    117.11806   -1056.2073    9656.5977    19357.108    3.5942828    26.850157 
   39900    115.55053    -1056.259    9637.6768    19362.198     3.593338     26.85251 
   39910    114.14352   -1055.5288    9645.1704    19362.361    3.5933078    26.852585 
   39920    112.98688   -1054.1897    9676.6506    19357.688    3.5941751    26.850425 
   39930    112.14325   -1052.3665    9728.8679    19348.606    3.5958622    26.846225 
   39940     111.6489   -1050.2445    9797.1918    19335.824    3.5982392    26.840312 
   39950     111.5196   -1048.0906    9875.6609    19320.279    3.6011344    26.833117 
   39960    111.75873   -1046.0304    9958.8661    19303.041    3.6043502    26.825135 
   39970    112.35224   -1044.2515    10040.796    19285.242    3.6076769    26.816887 
   39980    113.27147   -1042.6302    10117.756    19267.994    3.6109063     26.80889 
   39990    114.47099   -1041.5066    10183.231    19252.337    3.6138429    26.801626 
   40000    115.88323   -1040.8059    10234.379    19239.156    3.6163188    26.795509 
Loop time of 5.94501 on 1 procs for 20000 steps with 500 atoms

Performance: 290.664 ns/day, 0.083 hours/ns, 3364.165 timesteps/s
83.5% CPU use with 1 MPI tasks x no OpenMP threads

MPI task timing breakdown:
Section |  min time  |  avg time  |  max time  |%varavg| %total
---------------------------------------------------------------
Pair    | 5.017      | 5.017      | 5.017      |   0.0 | 84.39
Neigh   | 0.13616    | 0.13616    | 0.13616    |   0.0 |  2.29
Comm    | 0.18523    | 0.18523    | 0.18523    |   0.0 |  3.12
Output  | 0.023189   | 0.023189   | 0.023189   |   0.0 |  0.39
Modify  | 0.51121    | 0.51121    | 0.51121    |   0.0 |  8.60
Other   |            | 0.07221    |            |       |  1.21

Nlocal:    500 ave 500 max 500 min
Histogram: 1 0 0 0 0 0 0 0 0 0
Nghost:    1434 ave 1434 max 1434 min
Histogram: 1 0 0 0 0 0 0 0 0 0
Neighs:    13499 ave 13499 max 13499 min
Histogram: 1 0 0 0 0 0 0 0 0 0

Total # of neighbors = 13499
Ave neighs/atom = 26.998
Neighbor list builds = 175
Dangerous builds = 0
Total wall time: 0:00:10
