LAMMPS (7 Aug 2019)
Reading data file ...
  orthogonal box = (-1.4719 -1.4719 -1.4719) to (26.4719 26.4719 26.4719)
  1 by 1 by 1 MPI processor grid
  reading atoms ...
  500 atoms
  reading velocities ...
  500 velocities
  read_data CPU = 0.00716186 secs
Neighbor list info ...
  update every 1 steps, delay 10 steps, check yes
  max neighbors/atom: 2000, page size: 100000
  master list distance cutoff = 8
  ghost atom cutoff = 8
  binsize = 4, bins = 7 7 7
  1 neighbor lists, perpetual/occasional/extra = 1 0 0
  (1) pair lj/cut, perpetual
      attributes: half, newton on
      pair build: half/bin/atomonly/newton
      stencil: half/bin/3d/newton
      bin: standard
Setting up Verlet run ...
  Unit style    : real
  Current step  : 0
  Time step     : 1
Per MPI rank memory allocation (min/avg/max) = 3.998 | 3.998 | 3.998 Mbytes
Step Temp PotEng Press Volume Density Lx 
       0   0.94924373   -1315.7856    26.487323    21820.062    3.1885758    27.943791 
      10   0.94773918   -1315.7846    16.650396    21826.551    3.1876278    27.946561 
      20   0.94633278   -1315.7815   -5.5044104    21841.209    3.1854885    27.952816 
      30    0.9453991   -1315.7738   -23.473616    21853.182    3.1837433    27.957922 
      40    0.9452541    -1315.768   -24.055871    21853.628    3.1836783    27.958112 
      50    0.9459563   -1315.7644   -6.8274998     21842.26    3.1853352    27.953264 
      60   0.94729312   -1315.7565    15.561249    21827.559    3.1874806    27.946991 
      70   0.94894892   -1315.7461    26.446997    21820.495    3.1885124    27.943976 
      80   0.95071618   -1315.7381    17.638315    21826.386    3.1876518    27.946491 
      90   0.95257344   -1315.7284    -4.228399    21840.929    3.1855294    27.952696 
     100   0.95455833    -1315.714   -22.852739     21853.41    3.1837101    27.958019 
     110   0.95653786   -1315.7013   -24.546542    21854.668    3.1835267    27.958556 
     120    0.9580731   -1315.6911    -8.079061    21843.872    3.1851002    27.953952 
     130   0.95851264   -1315.6769    14.462697    21829.127    3.1872516     27.94766 
     140   0.95728271     -1315.66    26.314886    21821.484    3.1883679    27.944398 
     150   0.95418701   -1315.6457    18.564366    21826.732    3.1876013    27.946638 
     160   0.94950453   -1315.6302   -2.9457166    21841.084    3.1855067    27.952762 
     170   0.94381432   -1315.6102   -22.167931    21854.002    3.1836238    27.958272 
     180   0.93767741   -1315.5917   -24.965353    21856.033     3.183328    27.959138 
     190   0.93139533   -1315.5763   -9.3019914    21845.801     3.184819    27.954774 
     200   0.92498915   -1315.5575    13.332486     21831.02    3.1869753    27.948468 
     210   0.91838185    -1315.536    26.121159     21822.79    3.1881771    27.944956 
     220   0.91163083   -1315.5173    19.453719    21827.358    3.1875099    27.946906 
     230   0.90502636   -1315.4982   -1.6392814    21841.465    3.1854512    27.952925 
     240   0.89897773   -1315.4747   -21.409977    21854.777    3.1835109    27.958602 
     250   0.89377443   -1315.4526   -25.309866    21857.573    3.1831037    27.959795 
     260   0.88940103   -1315.4342   -10.500778    21847.934     3.184508    27.955684 
     270   0.88553969   -1315.4128    12.158167    21833.158    3.1866632     27.94938 
     280     0.881763   -1315.3886    25.845979     21824.36    3.1879478    27.945626 
     290   0.87778796   -1315.3672    20.283178    21828.228    3.1873828    27.947277 
     300   0.87361456    -1315.346  -0.32961878     21842.04    3.1853673     27.95317 
     310   0.86945586   -1315.3205    -20.59213    21855.698    3.1833767    27.958995 
     320   0.86552571    -1315.296    -25.58481     21859.24    3.1828609    27.960505 
     330   0.86185166   -1315.2754   -11.673155     21850.21    3.1841763    27.956655 
     340   0.85824928   -1315.2524    10.946117    21835.465    3.1863265    27.950365 
     350   0.85447042   -1315.2262    25.497085    21826.109    3.1876924    27.946372 
     360   0.85040958   -1315.2028     21.06058    21829.249    3.1872337    27.947713 
     370    0.8462058     -1315.18   0.99164951    21842.714     3.185269    27.953458 
     380   0.84215593   -1315.1528   -19.704573    21856.672    3.1832348    27.959411 
     390   0.83850396   -1315.1263   -25.779122    21860.949    3.1826121    27.961234 
     400   0.83526513   -1315.1038   -12.808892    21852.555    3.1838346    27.957655 
     410   0.83221295   -1315.0792     9.702235    21837.889    3.1859728    27.951399 
     420   0.82903879   -1315.0512    25.073211    21828.003    3.1874157    27.947181 
     430   0.82557093   -1315.0257    21.777849    21830.411    3.1870642    27.948208 
     440   0.82189133   -1315.0011     2.313462    21843.494    3.1851553     27.95379 
     450   0.81826273   -1314.9722   -18.756706    21857.717    3.1830827    27.959856 
     460   0.81492393   -1314.9435   -25.897952    21862.722    3.1823539     27.96199 
     470   0.81190897   -1314.9189   -13.909351    21854.997    3.1834789    27.958696 
     480   0.80902096   -1314.8924    8.4262647    21840.456    3.1855983    27.952494 
     490   0.80597691   -1314.8624      24.5724    21830.074    3.1871133    27.948064 
     500   0.80261781   -1314.8347    22.430706    21831.743    3.1868697    27.948777 
     510   0.79902662   -1314.8081    3.6312182    21844.408     3.185022     27.95418 
     520   0.79546387   -1314.7775   -17.750737    21858.858    3.1829165    27.960343 
     530     0.792172   -1314.7466   -25.939943    21864.583     3.182083    27.962784 
     540   0.78919749   -1314.7198   -14.970821    21857.554    3.1831065    27.959787 
     550   0.78636016   -1314.6917    7.1213353    21843.186    3.1852002    27.953659 
     560   0.78338953   -1314.6599    23.994433    21832.339    3.1867827    27.949031 
     570   0.78012896   -1314.6301    23.015257    21833.264    3.1866477    27.949426 
     580   0.77665501    -1314.602    4.9399432    21845.472    3.1848668    27.954634 
     590   0.77322096   -1314.5699   -16.689291    21860.107    3.1827347    27.960875 
     600   0.77006923   -1314.5372   -25.903642    21866.535     3.181799    27.963616 
     610   0.76725592   -1314.5088   -15.988741    21860.224    3.1827176    27.960925 
     620   0.76461482   -1314.4794    5.7920549    21846.072    3.1847793     27.95489 
     630    0.7618848   -1314.4463      23.3408    21834.792    3.1864248    27.950078 
     640   0.75890767    -1314.415    23.529072    21834.967    3.1863992    27.950152 
     650    0.7557494   -1314.3858    6.2356166    21846.678     3.184691    27.955149 
     660   0.75265213   -1314.3528   -15.574483     21861.45    3.1825391    27.961448 
     670    0.7498555   -1314.3189   -25.787291    21868.562    3.1815041     27.96448 
     680   0.74742352   -1314.2893   -16.958304    21862.988    3.1823152    27.962104 
     690   0.74520336   -1314.2593    4.4431868    21849.096    3.1843387     27.95618 
     700   0.74294344   -1314.2254    22.612829    21837.413    3.1860422    27.951196 
     710   0.74048536   -1314.1932    23.969001    21836.835    3.1861266    27.950949 
     720   0.73788711   -1314.1633     7.512928     21848.01    3.1844969    27.955716 
     730   0.73538401     -1314.13   -14.410026    21862.871    3.1823323    27.962054 
     740   0.73321865   -1314.0956   -25.590699    21870.643    3.1812015    27.965366 
     750   0.73146993   -1314.0653   -17.876016    21865.821    3.1819029    27.963311 
     760   0.73000575   -1314.0353    3.0784255    21852.227    3.1838824    27.957515 
     770   0.72859128   -1314.0014    21.810833    21840.175    3.1856393    27.952375 
     780   0.72707454    -1313.969    24.330702    21838.839    3.1858342    27.951804 
     790   0.72551189   -1313.9394    8.7651409    21849.435    3.1842892    27.956324 
     800   0.72413841   -1313.9068   -13.201057    21864.331    3.1821197    27.962676 
     810   0.72320712   -1313.8728   -25.314724     21872.73    3.1808979    27.966256 
     820   0.72281937    -1313.843   -18.738774    21868.668    3.1814888    27.964525 
     830   0.72286971   -1313.8141    1.7018012    21855.405    3.1834194     27.95887 
     840   0.72314224   -1313.7817    20.935966    21843.011    3.1852258    27.953584 
     850   0.72348893   -1313.7505    24.610796    21840.907    3.1855326    27.952687 
     860    0.7239589   -1313.7226    9.9864005    21850.876    3.1840792    27.956939 
     870   0.72478692   -1313.6677    -11.82512    21865.759    3.1819119    27.963285 
     880   0.72623937   -1313.6113   -24.798831     21874.82     3.180594    27.967147 
     890   0.72844202   -1313.5839   -19.592634    21871.653    3.1810545    27.965797 
     900   0.73128541   -1313.5581  0.094211847    21858.862    3.1829159    27.960344 
     910   0.73455784    -1313.529    19.758856     21846.15     3.184768    27.954923 
     920    0.7380916    -1313.501    24.742688    21843.157    3.1852044    27.953647 
     930   0.74191505   -1313.4521    11.434049    21852.332    3.1838671     27.95756 
     940   0.74621561   -1313.4015   -10.294141     21867.13    3.1817125    27.963869 
     950   0.75123487   -1313.3737      -24.457    21876.851    3.1802986    27.968013 
     960   0.75709631   -1313.3502   -20.565584    21874.526    3.1806366    27.967022 
     970   0.76371504   -1313.3289   -1.4876732    21862.095    3.1824452    27.961723 
     980   0.77085522   -1313.3046    18.734868    21848.967    3.1843574    27.956125 
     990   0.77829792    -1313.281    25.042644     21845.06     3.184927    27.954458 
    1000   0.78599724   -1313.2612    12.722029    21853.443    3.1837052    27.958034 
    1010   0.79410817     -1313.24    -8.956574    21868.067    3.1815761    27.964269 
    1020   0.80287397   -1313.1678   -23.640361    21878.297    3.1800885    27.968628 
    1030   0.81241025   -1313.1487   -21.116796    21876.843    3.1802998    27.968009 
    1040   0.82261927   -1313.1567   -3.1097027    21864.975    3.1820261     27.96295 
    1050     0.833239   -1313.1619    17.241188     21851.61    3.1839722    27.957252 
    1060   0.84400037   -1313.1427    24.912441     21846.76    3.1846791    27.955183 
    1070   0.85479208   -1313.1272    14.051211     21854.14    3.1836036    27.958331 
    1080   0.86573398   -1313.0862   -7.0148119    21868.416    3.1815254    27.964417 
    1090   0.87705898   -1313.0674   -22.905965    21879.208    3.1799561    27.969017 
    1100   0.88891024   -1313.0276   -21.732321    21878.717    3.1800275    27.968807 
    1110   0.90120547   -1313.0399   -4.7886932     21867.51    3.1816571    27.964031 
    1120   0.91366251   -1313.0495    15.720392    21853.992    3.1836252    27.958268 
    1130   0.92598553   -1313.0589    24.527556     21848.25     3.184462    27.955819 
    1140   0.93805493   -1313.0228    15.305468    21854.607    3.1835356     27.95853 
    1150    0.9499353   -1312.9863   -5.2282348    21868.485    3.1815153    27.964447 
    1160   0.96187103   -1312.9718   -21.927607    21879.771    3.1798743    27.969257 
    1170   0.97405782   -1312.9361   -22.304154     21880.27    3.1798018    27.969469 
    1180   0.98645432   -1312.9285   -6.4369176    21869.828    3.1813199    27.965019 
    1190   0.99875521   -1312.9681    13.892074    21856.269    3.1832936    27.959239 
    1200    1.0106171   -1312.9334    24.336558    21849.588     3.184267    27.956389 
    1210    1.0218812   -1312.8534    16.963406    21854.866    3.1834979    27.958641 
    1220    1.0326033   -1312.8476   -3.3391645    21868.426     3.181524    27.964422 
    1230    1.0430031   -1312.8148   -20.917096    21880.329    3.1797932    27.969494 
    1240    1.0532814   -1312.8099    -23.14494    21881.892     3.179566     27.97016 
    1250    1.0633948   -1312.8586   -8.6087326    21872.053    3.1809963    27.965968 
    1260    1.0730363    -1312.857    12.563141    21858.043    3.1830353    27.959995 
    1270    1.0817705   -1312.8547    24.412653    21850.242    3.1841717    27.956668 
    1280    1.0892995   -1312.8567     18.08374    21854.436    3.1835605    27.958457 
    1290    1.0956064   -1312.8354   -1.4953269    21867.511    3.1816571    27.964031 
    1300    1.1009008   -1312.8122   -19.893763    21879.849    3.1798629     27.96929 
    1310    1.1053501   -1312.7921   -23.633524     21882.41    3.1794907    27.970381 
    1320    1.1089327   -1312.8264   -10.228554    21873.305    3.1808143    27.966501 
    1330    1.1113823   -1312.8849     10.61757    21859.179    3.1828698     27.96048 
    1340    1.1123445   -1312.9428    23.564812    21850.321      3.18416    27.956702 
    1350     1.111639   -1312.9803     19.04014    21853.092    3.1837564    27.957884 
    1360     1.109387   -1312.9709   0.66263367    21865.227    3.1819894    27.963058 
    1370    1.1060502   -1312.9597    -18.12114    21877.675    3.1801789    27.968364 
    1380    1.1022155    -1313.025   -23.907634    21881.161    3.1796723    27.969849 
    1390    1.0982902   -1313.0466   -11.821626    21872.899    3.1808733    27.966328 
    1400    1.0944026    -1313.093    8.8611012    21858.844    3.1829186    27.960337 
    1410    1.0905208   -1313.1138    23.109365    21849.194    3.1843244    27.956222 
    1420    1.0866473   -1313.1385    20.145836    21850.905     3.184075    27.956951 
    1430    1.0830008   -1313.1656    2.2384837    21862.499    3.1823865    27.961895 
    1440    1.0799922   -1313.1663    -17.09973     21875.19    3.1805401    27.967305 
    1450    1.0780252   -1313.1934   -23.902766    21879.444    3.1799217    27.969117 
    1460    1.0772818   -1313.2258   -13.095895    21871.932    3.1810139    27.965916 
    1470    1.0776249    -1313.283    7.2657918    21857.991    3.1830428    27.959973 
    1480    1.0786941   -1313.3386     22.24188    21847.667     3.184547     27.95557 
    1490    1.0801482   -1313.3727    20.767238    21848.307    3.1844536    27.955843 
    1500    1.0818653   -1313.4091    3.8824728    21859.134    3.1828764     27.96046 
    1510    1.0839747   -1313.4187   -15.674025    21871.883    3.1810211    27.965895 
    1520    1.0867148   -1313.4537    -23.73592    21876.901    3.1802914    27.968034 
    1530    1.0901829    -1313.518   -14.417363    21870.216    3.1812636    27.965184 
    1540     1.094178   -1313.5578    5.7003175    21856.475    3.1832635    27.959327 
    1550    1.0982958   -1313.6198    21.462109    21845.576    3.1848517    27.954678 
    1560    1.1021687   -1313.6594    21.381838    21845.244    3.1849001    27.954537 
    1570    1.1056414   -1313.7009    5.4304825    21855.399    3.1834203    27.958868 
    1580    1.1088425   -1313.7398   -14.436901    21868.201    3.1815566    27.964326 
    1590    1.1120592   -1313.7784   -23.553822    21873.883    3.1807302    27.966747 
    1600    1.1154571   -1313.8211   -15.291535    21867.973    3.1815898    27.964229 
    1610    1.1189194   -1313.8637    4.2704792    21854.578    3.1835399    27.958518 
    1620     1.122102   -1313.9032    20.680302     21843.33    3.1851792     27.95372 
    1630    1.1246643    -1313.944    21.700748    21842.256    3.1853359    27.953262 
    1640    1.1265071   -1313.9865    6.6103119    21851.822    3.1839414    27.957342 
    1650    1.1278375   -1314.0259   -13.269326    21864.614    3.1820786    27.962797 
    1660    1.1290068   -1314.0644   -23.246348     21870.86    3.1811698    27.965459 
    1670     1.130247   -1314.1063   -16.058818    21865.668    3.1819252    27.963246 
    1680    1.1315015   -1314.1483    2.9961987    21852.614    3.1838259     27.95768 
    1690    1.1324714   -1314.1869    19.844909    21841.084    3.1855068    27.952762 
    1700    1.1328446   -1314.2261    21.927261    21839.317    3.1857644    27.952009 
    1710    1.1325384    -1314.267    7.7247615    21848.301    3.1844545    27.955841 
    1720    1.1317725   -1314.3048   -12.095759    21861.055    3.1825966     27.96128 
    1730    1.1309151   -1314.3412   -22.870056    21867.841     3.181609    27.964172 
    1740    1.1302218   -1314.3809    -16.74773    21863.376    3.1822588    27.962269 
    1750    1.1296613   -1314.4208    1.7494659     21850.71    3.1841034    27.956868 
    1760     1.128954   -1314.4572    18.962449    21838.957     3.185817    27.951855 
    1770    1.1277929    -1314.494    22.064444    21836.536    3.1861702    27.950822 
    1780    1.1260869   -1314.5325    8.7719917     21844.93    3.1849458    27.954403 
    1790    1.1240405   -1314.5682   -10.920584    21857.607    3.1830987    27.959809 
    1800    1.1220121   -1314.6022   -22.427617    21864.893     3.182038    27.962916 
    1810    1.1202583   -1314.6393   -17.356053    21861.146    3.1825833    27.961318 
    1820    1.1187678   -1314.7015   0.39780038    21848.893    3.1843682    27.956093 
    1830    1.1172738   -1314.7359    17.999577    21836.901    3.1861169    27.950978 
    1840    1.1154482   -1314.7702    22.204829    21833.771    3.1865737    27.949642 
    1850    1.1131745   -1314.8064    9.9026587    21841.524    3.1854425     27.95295 
    1860    1.1106264   -1314.8401   -9.6450598    21854.111    3.1836078    27.958319 
    1870     1.108139   -1314.8719   -21.942124    21861.935    3.1824686    27.961654 
    1880    1.1059614   -1314.9064   -18.008881    21858.964    3.1829011    27.960388 
    1890    1.1040745   -1314.9419  -0.77258203    21847.175    3.1846187     27.95536 
    1900    1.1022062    -1314.974    17.042824    21835.061    3.1863854    27.950193 
    1910    1.1000308   -1315.0058    22.172955    21831.342    3.1869283    27.948605 
    1920    1.0974078   -1315.0394    10.813979    21838.489    3.1858853    27.951655 
    1930     1.094481   -1315.0707   -8.4717256    21850.915    3.1840735    27.956956 
    1940    1.0915623   -1315.0997   -21.366561    21859.153    3.1828735    27.960469 
    1950    1.0888916   -1315.1312   -18.444527    21856.881    3.1832044      27.9595 
    1960     1.086453   -1315.1636   -1.8959719    21845.576    3.1848517    27.954678 
    1970    1.0839797   -1315.1927    16.063411    21833.397    3.1866283    27.949483 
    1980    1.0811439   -1315.2209    22.067805    21829.133    3.1872507    27.947663 
    1990    1.0777919   -1315.2507    11.658779    21835.684    3.1862945    27.950458 
    2000     1.074048   -1315.2784   -7.3069673    21847.926    3.1845091    27.955681 
    2010    1.0702095   -1315.3032   -20.734271    21856.551    3.1832525    27.959359 
    2020    1.0665137     -1315.33   -18.797953    21854.977    3.1834817    27.958688 
    2030    1.0629544   -1315.3577    -2.969877    21844.197    3.1850528     27.95409 
    2040    1.0592813   -1315.3819    15.065676    21832.016    3.1868298    27.948893 
    2050    1.0551799   -1315.4047    21.891836    21827.264    3.1875237    27.946865 
    2060    1.0505017   -1315.4288    12.435213     21833.24    3.1866512    27.949415 
    2070    1.0453688   -1315.4507   -6.1562319    21845.286     3.184894    27.954555 
    2080    1.0400761   -1315.4693   -20.051312    21854.278    3.1835835     27.95839 
    2090    1.0348668   -1315.4893   -19.072803    21853.407    3.1837104    27.958018 
    2100    1.0297543   -1315.5101    -3.994398    21843.195    3.1851989    27.953663 
    2110    1.0245179   -1315.5273    14.051523     21831.08    3.1869665    27.948494 
    2120    1.0188757   -1315.5426    21.645783    21825.897    3.1877232    27.946282 
    2130    1.0127043    -1315.559    13.140515    21831.324    3.1869309    27.948598 
    2140    1.0061406   -1315.5731   -5.0255065    21843.164    3.1852034     27.95365 
    2150   0.99948842   -1315.5836   -19.324485    21852.505    3.1838419    27.957633 
    2160   0.99300523   -1315.5951   -19.273967    21852.338    3.1838662    27.957562 
    2170   0.98673245   -1315.6073   -4.9711487    21842.729    3.1852668    27.953464 
    2180   0.98049225    -1315.616    13.021721    21830.739    3.1870163    27.948348 
    2190   0.97405068   -1315.6225    21.330212    21825.179    3.1878282    27.945975 
    2200   0.96732494   -1315.6298    13.772791    21830.074    3.1871134    27.948064 
    2210   0.96047824   -1315.6352   -3.9193263    21841.692    3.1854181    27.953021 
    2220    0.9538316    -1315.637   -18.559163    21851.351    3.1840101    27.957141 
    2230   0.94766362   -1315.6393    -19.40523    21851.876    3.1839335    27.957365 
    2240   0.94205134   -1315.6426   -5.9007704    21842.893    3.1852429    27.953534 
    2250   0.93686712   -1315.6426    11.978423    21831.072    3.1869676     27.94849 
    2260   0.93193007   -1315.6403    20.947941    21825.172    3.1878291    27.945972 
    2270   0.92719843   -1315.6389    14.333276    21829.542     3.187191    27.947838 
    2280   0.92285727   -1315.6359   -2.8386602    21840.909    3.1855323    27.952688 
    2290   0.91923454   -1315.6295   -17.757273    21850.845    3.1840838    27.956925 
    2300   0.91661037   -1315.6234   -19.467419    21852.038    3.1839099    27.957434 
    2310   0.91506087   -1315.6186   -6.7814771     21843.69    3.1851267    27.953874 
    2320   0.91444535    -1315.611    10.925863    21832.071    3.1868219    27.948917 
    2330    0.9145397   -1315.6009    20.503709    21825.859    3.1877288    27.946266 
    2340   0.91521349   -1315.5919     14.82488    21829.703    3.1871675    27.947906 
    2350   0.91651446   -1315.5816   -1.7834649    21840.784    3.1855505    27.952634 
    2360   0.91859375    -1315.568   -16.920954    21850.949    3.1840685     27.95697 
    2370   0.92152874   -1315.5547   -19.463217     21852.78    3.1838017    27.957751 
    2380   0.92517909   -1315.5428   -7.6150127    21845.068    3.1849257    27.954462 
    2390    0.9291858   -1315.5284    9.8635697    21833.675    3.1865877    27.949601 
    2400    0.9331213   -1315.5116    19.997205    21827.172    3.1875371    27.946826 
    2410   0.93668922   -1315.4957    15.245929    21830.479    3.1870543    27.948237 
    2420     0.939831   -1315.4789  -0.75716247     21841.23    3.1854855    27.952824 
    2430   0.94266321   -1315.4588   -16.054052    21851.567    3.1839785    27.957234 
    2440   0.94529809   -1315.4389   -19.394513    21853.992    3.1836253    27.958268 
    2450   0.94768651   -1315.4206    -8.399218    21846.903    3.1846582    27.955245 
    2460   0.94960031   -1315.4002    8.7979743    21835.747    3.1862853    27.950485 
    2470    0.9507662   -1315.3773    19.436948    21828.962    3.1872758     27.94759 
    2480   0.95105079   -1315.3553    15.603957    21831.716    3.1868736    27.948765 
    2490   0.95055431   -1315.3327   0.24524846    21842.091    3.1853598    27.953192 
    2500   0.94953815   -1315.3071   -15.153197    21852.542    3.1838364     27.95765 
    2510   0.94824073   -1315.2816   -19.257464     21855.52    3.1834027    27.958919 
    2520   0.94672028   -1315.2579   -9.1285683    21849.047    3.1843457    27.956159 
    2530   0.94483828   -1315.2324    7.7352209    21838.148    3.1859351    27.951509 
    2540   0.94239273   -1315.2046    18.826868      21831.1    3.1869636    27.948502 
    2550   0.93930091   -1315.1776    15.898461    21833.297    3.1866428     27.94944 
    2560    0.9356926   -1315.1506    1.2193707    21843.262    3.1851891    27.953691 
    2570    0.9318421   -1315.1207   -14.223708    21853.779    3.1836562    27.958177 
    2580   0.92799225   -1315.0909   -19.055147    21857.275     3.183147    27.959668 
    2590   0.92420367    -1315.063   -9.8026739    21851.416    3.1840005    27.957169 
    2600   0.92033889   -1315.0337    6.6777357    21840.796    3.1855487    27.952639 
    2610   0.91619009   -1315.0022    18.168397    21833.513    3.1866114    27.949532 
    2620   0.91165529   -1314.9716    16.127643    21835.157    3.1863715    27.950233 
    2630   0.90683097   -1314.9412    2.1605947    21844.683     3.184982    27.954297 
    2640   0.90195163   -1314.9083   -13.270338    21855.221    3.1834462    27.958792 
    2650   0.89722493   -1314.8752   -18.789685    21859.203    3.1828664     27.96049 
    2660   0.89268821   -1314.8442   -10.420075    21853.955    3.1836306    27.958252 
    2670   0.88819119   -1314.8122    5.6290405    21843.641    3.1851339    27.953853 
    2680   0.88351538   -1314.7781    17.464058     21836.15    3.1862265    27.950657 
    2690    0.8785418   -1314.7448    16.290666    21837.248    3.1860663    27.951126 
    2700   0.87334211   -1314.7119    3.0649783     21846.31    3.1847447    27.954991 
    2710   0.86812532   -1314.6768    -12.29753    21856.827    3.1832123    27.959477 
    2720   0.86308331   -1314.6414   -18.463117    21861.261    3.1825666    27.961367 
    2730   0.85825319   -1314.6081   -10.979229    21856.622    3.1832422    27.959389 
    2740   0.85349678   -1314.5741    4.5928787    21846.638    3.1846969    27.955131 
    2750   0.84860995   -1314.5381    16.716665    21838.972    3.1858148    27.951861 
    2760   0.84348031   -1314.5029    16.386808    21839.533     3.185733      27.9521 
    2770   0.83817593   -1314.4684    3.9282835    21848.108    3.1844826    27.955758 
    2780   0.83289879   -1314.4318   -11.310421    21858.561    3.1829598    27.960216 
    2790   0.82784101    -1314.395   -18.078339    21863.413    3.1822535    27.962284 
    2800   0.82305344   -1314.3603   -11.479339    21859.374    3.1828414    27.960563 
    2810   0.81842223   -1314.3253    3.5725043    21849.743    3.1842444    27.956456 
    2820   0.81376779   -1314.2884    15.928734     21841.93    3.1853834    27.953123 
    2830   0.80899226   -1314.2524     16.41502    21841.962    3.1853786    27.953137 
    2840   0.80416581   -1314.2173    4.7457452    21850.027    3.1842029    27.956577 
    2850   0.79948775   -1314.1807   -10.314832     21860.37    3.1826963    27.960987 
    2860   0.79515444   -1314.1438   -17.638822    21865.597    3.1819355    27.963216 
    2870   0.79123444   -1314.1091   -11.919772    21862.146    3.1824379    27.961744 
    2880   0.78764138   -1314.0746    2.5715721     21852.88    3.1837872    27.957794 
    2890   0.78422136   -1314.0387    15.103654    21844.944    3.1849439    27.954409 
    2900   0.78088958   -1314.0036    16.375291    21844.453    3.1850154    27.954199 
    2910   0.77771511   -1313.9699    5.5134959    21851.979    3.1839185    27.957409 
    2920   0.77490129    -1313.886   -9.0288969     21862.17    3.1824343    27.961755 
    2930   0.77265518   -1313.8512    -17.03748    21867.841    3.1816091    27.964172 
    2940   0.77103434   -1313.8187   -12.445725    21865.122    3.1820047    27.963013 
    2950   0.76997743   -1313.7871    1.3005524    21856.326    3.1832853    27.959263 
    2960   0.76934925    -1313.779    13.883443    21848.227    3.1844652    27.955809 
    2970   0.76907321   -1313.7227    16.388955    21846.996    3.1846447    27.955284 
    2980   0.76920606   -1313.6929    6.6213355    21853.773    3.1836572    27.958174 
    2990   0.76990817    -1313.638   -7.7951024     21863.75    3.1822043    27.962428 
    3000   0.77141718   -1313.5831    -16.32037    21869.832    3.1813194    27.965021 
    3010   0.77377619   -1313.5554    -12.91641    21867.866    3.1816053    27.964183 
    3020   0.77692315   -1313.5292 -0.015262699    21859.587    3.1828104    27.960653 
    3030   0.78071762   -1313.5021      12.8306    21851.367    3.1840077    27.957148 
    3040    0.7850461   -1313.4762    16.095762    21849.489    3.1842814    27.956347 
    3050   0.78991638   -1313.4523    7.4161533    21855.502    3.1834052    27.958912 
    3060   0.79546087   -1313.4284   -6.6615771    21865.108    3.1820067    27.963007 
    3070   0.80184645   -1313.4045   -15.703617    21871.385    3.1810935    27.965683 
    3080    0.8091568   -1313.3833   -13.125364    21869.918    3.1813069    27.965058 
    3090    0.8173316   -1313.3637  -0.89879321    21862.031    3.1824546    27.961696 
    3100   0.82620532   -1313.3437    11.921836    21853.769    3.1836576    27.958173 
    3110   0.83561912   -1313.3247    15.833317    21851.409    3.1840016    27.957166 
    3120    0.8455261   -1313.3078    7.9890655    21856.816    3.1832139    27.959472 
    3130   0.85602315   -1313.2666   -5.5515671     21866.11    3.1818609    27.963434 
    3140   0.86724187   -1313.2254   -14.906073    21872.638    3.1809112    27.966217 
    3150   0.87924124   -1313.2112   -13.374154     21871.81    3.1810317    27.965864 
    3160   0.89195149   -1313.2236   -2.1305998    21864.413    3.1821079    27.962711 
    3170   0.90517464   -1313.2111    10.761781    21856.039    3.1833271     27.95914 
    3180   0.91869388   -1313.1994    15.601742    21853.002    3.1837695    27.957845 
    3190   0.93240002   -1313.1653    8.9999324    21857.625    3.1830961    27.959817 
    3200   0.94635756   -1313.1562    -4.292415    21866.589    3.1817913    27.963638 
    3210   0.96069691   -1313.1471   -14.301244    21873.385    3.1808026    27.966535 
    3220   0.97543157   -1313.1404   -13.716868    21873.119    3.1808414    27.966422 
    3230   0.99046329    -1313.136   -3.0523205    21866.133    3.1818576    27.963444 
    3240    1.0055461   -1313.1315    9.7877376    21857.714    3.1830831    27.959855 
    3250    1.0204066   -1313.1032    15.434147    21854.164    3.1836002    27.958341 
    3260    1.0348836   -1313.0773    9.6002923    21858.196    3.1830129     27.96006 
    3270    1.0488992   -1313.0767   -3.4247868    21866.895    3.1817466    27.963769 
    3280    1.0625004   -1313.0762   -13.813296    21873.852    3.1807348    27.966734 
    3290    1.0756995   -1313.0782   -13.971749    21873.982    3.1807158     27.96679 
    3300    1.0883393   -1313.0828   -3.8706341    21867.265    3.1816928    27.963927 
    3310    1.1000838   -1313.0878     8.998428    21858.714    3.1829375    27.960281 
    3320    1.1105376   -1313.1183    14.951607    21854.642    3.1835306    27.958545 
    3330    1.1194288   -1313.1023    10.009476     21857.96    3.1830473     27.95996 
    3340    1.1265987   -1313.0875   -2.2925512    21866.146    3.1818557     27.96345 
    3350     1.132068   -1313.0977   -12.918528    21873.118    3.1808414    27.966422 
    3360    1.1358807   -1313.1352    -14.11887    21873.695    3.1807575    27.966668 
    3370     1.138028   -1313.1758   -4.9518573    21867.345    3.1816813    27.963961 
    3380    1.1383836   -1313.1927    7.9150704    21858.633    3.1829493    27.960247 
    3390    1.1368936   -1313.2107    14.807677    21853.874    3.1836425    27.958217 
    3400    1.1337359   -1313.2314    10.654077    21856.401    3.1832743    27.959295 
    3410    1.1293864   -1313.2291   -1.2163898    21864.128    3.1821494    27.962589 
    3420     1.124514   -1313.2519   -12.223062    21871.181    3.1811232    27.965596 
    3430    1.1197706   -1313.2773   -14.166398    21872.187    3.1809769    27.966025 
    3440    1.1156159   -1313.3059   -5.7030346    21866.244    3.1818413    27.963492 
    3450    1.1122349   -1313.3355    6.8787773    21857.567    3.1831046    27.959792 
    3460    1.1096694   -1313.4151    14.022648    21852.294    3.1838727    27.957543 
    3470    1.1078574   -1313.4725    10.881198     21853.91    3.1836372    27.958233 
    3480    1.1068118   -1313.5069  -0.14551229     21860.84    3.1826279    27.961188 
    3490    1.1066473   -1313.5415   -10.970372    21867.643    3.1816379    27.964088 
    3500    1.1074734    -1313.627   -13.941154    21869.014    3.1814383    27.964672 
    3510    1.1093104   -1313.6661    -6.441996    21863.608    3.1822249    27.962368 
    3520    1.1118904   -1313.7303    5.6341165    21855.069    3.1834683    27.958727 
    3530    1.1148524   -1313.7698    13.593457    21849.369    3.1842988    27.956296 
    3540    1.1179197   -1313.8353    11.314223    21850.335    3.1841581    27.956708 
    3550     1.120896   -1313.8768   0.83581696    21856.827    3.1832123    27.959476 
    3560    1.1237863   -1313.9176   -10.153919    21863.674    3.1822154    27.962396 
    3570    1.1266548   -1313.9588   -13.566876    21865.493    3.1819506    27.963172 
    3580    1.1295032    -1314.026   -7.0820997    21860.629    3.1826586    27.961098 
    3590    1.1321196    -1314.068    4.7229853    21852.351    3.1838642    27.957568 
    3600    1.1341997   -1314.1087    12.951524    21846.466     3.184722    27.955058 
    3610     1.135486   -1314.1494    11.531009    21846.967    3.1846489    27.955272 
    3620    1.1358939   -1314.1896    1.6086609    21853.103    3.1837547    27.957889 
    3630    1.1355219   -1314.2278   -9.3822879    21859.976    3.1827538    27.960819 
    3640    1.1345356   -1314.2651   -13.342876    21862.199    3.1824302    27.961767 
    3650    1.1330127   -1314.3027   -7.4366693    21857.875    3.1830597    27.959923 
    3660    1.1308668   -1314.3389    3.9203942     21849.96    3.1842127    27.956548 
    3670    1.1279045   -1314.3727    12.309763    21844.043    3.1850752    27.954025 
    3680    1.1239721   -1314.4056     11.53592      21844.2    3.1850524    27.954091 
    3690    1.1190807   -1314.4373    2.2608707    21849.995    3.1842076    27.956563 
    3700    1.1134123   -1314.4665   -8.5596003    21856.848    3.1832093    27.959486 
    3710    1.1072053   -1314.4941   -12.944064    21859.455    3.1828296    27.960597 
    3720    1.1006074   -1314.5216   -7.7413372    21855.709    3.1833752       27.959 
    3730    1.0936066   -1314.5474    3.1469575    21848.218    3.1844665    27.955805 
    3740    1.0860882   -1314.5707    11.645449    21842.344    3.1853229      27.9533 
    3750    1.0779723   -1314.5929    11.473808    21842.219    3.1853412    27.953246 
    3760    1.0693271   -1314.6139    2.8414184    21847.703    3.1845417    27.955585 
    3770    1.0603704   -1314.6326   -7.7712341    21854.529     3.183547    27.958497 
    3780    1.0513634   -1314.6499   -12.528506    21857.496    3.1831149    27.959762 
    3790    1.0424771   -1314.6672   -8.0011958     21854.31    3.1835789    27.958403 
    3800    1.0337319   -1314.6833    2.4038693    21847.248    3.1846079    27.955392 
    3810    1.0250505   -1314.6974    10.965882    21841.436    3.1854554    27.952912 
    3820     1.016382   -1314.7107    11.354306    21841.039    3.1855133    27.952743 
    3830    1.0078019   -1314.7235    3.3576159    21846.194    3.1847617    27.954942 
    3840   0.99951532   -1314.7347   -7.0143399    21852.945    3.1837777    27.957821 
    3850   0.99176215    -1314.745   -12.096062    21856.207    3.1833025    27.959212 
    3860   0.98469886   -1314.7558   -8.2145789    21853.526    3.1836931    27.958069 
    3870   0.97834261   -1314.7661    1.6979467    21846.859    3.1846646    27.955226 
    3880   0.97261562   -1314.7752    10.283251    21841.093    3.1855054    27.952766 
    3890   0.96745433   -1314.7841    11.191426    21840.408    3.1856054    27.952474 
    3900    0.9629017   -1314.7931    3.8206145    21845.197     3.184907    27.954517 
    3910   0.95911493   -1314.8011   -6.2829627    21851.811     3.183943    27.957338 
    3920   0.95628442   -1314.8088   -11.644447    21855.294    3.1834356    27.958823 
    3930   0.95452527   -1314.8175   -8.3788206    21853.052    3.1837621    27.957867 
    3940   0.95381969   -1314.8264    1.0357942    21846.741    3.1846819    27.955175 
    3950   0.95404942   -1314.8345    9.6084701    21841.002    3.1855187    27.952727 
    3960   0.95509261   -1314.8429    10.997207    21840.014    3.1856628    27.952306 
    3970   0.95691357   -1314.8517    4.2392629    21844.408    3.1850219     27.95418 
    3980    0.9595787   -1314.8601   -5.5736316    21850.835    3.1840852    27.956921 
    3990   0.96318651   -1314.8683     -11.1742    21854.479    3.1835542    27.958476 
    4000   0.96776314   -1314.8777   -8.4947608    21852.628     3.183824    27.957686 
    4010   0.97319875   -1314.8875   0.41958151    21846.645    3.1846958    27.955134 
    4020   0.97927048   -1314.8968    8.9472176    21840.931     3.185529    27.952697 
    4030   0.98573549   -1314.9063    10.778142    21839.645    3.1857166    27.952148 
    4040   0.99242743   -1314.9163    4.6170989    21843.637    3.1851344    27.953851 
    4050   0.99928545   -1314.9259   -4.8876905    21849.849    3.1842288    27.956501 
    4060    1.0062949   -1314.9352   -10.690288    21853.617    3.1836799    27.958108 
    4070    1.0133856   -1314.9455   -8.5675648    21852.124    3.1838973    27.957471 
    4080    1.0203645   -1314.9562  -0.15289287    21846.462    3.1847225    27.955056 
    4090    1.0269366   -1314.9662    8.3009317    21840.785    3.1855503    27.952635 
    4100    1.0328019   -1314.9761    10.537052    21839.221    3.1857785    27.951967 
    4110    1.0377616   -1314.9863    4.9549667    21842.819    3.1852538    27.953502 
    4120    1.0417562   -1314.9959   -4.2280531    21848.806    3.1843809    27.956056 
    4130    1.0448118    -1315.005   -10.198266    21852.674    3.1838173    27.957706 
    4140    1.0469371   -1315.0147   -8.6023148    21851.522    3.1839852    27.957214 
    4150    1.0480544   -1315.0246  -0.68338056     21846.18    3.1847637    27.954936 
    4160    1.0480174   -1315.0336    7.6717289     21840.56    3.1855831    27.952539 
    4170    1.0467071   -1315.0422     10.27775    21838.745    3.1858479    27.951764 
    4180    1.0441322    -1315.051     5.255223    21841.969    3.1853777     27.95314 
    4190    1.0404607    -1315.059   -3.5954894    21847.732    3.1845374    27.955598 
    4200    1.0359548   -1315.0663   -9.7010889    21851.687     3.183961    27.957285 
    4210    1.0308578   -1315.0741   -8.6015264    21850.866    3.1840807    27.956935 
    4220    1.0253129    -1315.082   -1.1717136    21845.852    3.1848115    27.954796 
    4230    1.0193671    -1315.089    7.0625994    21840.318    3.1856184    27.952435 
    4240    1.0130504   -1315.0956    10.003877     21838.29    3.1859143     27.95157 
    4250    1.0064643   -1315.1022    5.5192165    21841.169    3.1854944    27.952798 
    4260   0.99981018   -1315.1082   -2.9925758    21846.719     3.184685    27.955166 
    4270   0.99333444   -1315.1135   -9.2046082     21850.76    3.1840962    27.956889 
    4280   0.98723148    -1315.119   -8.5720221    21850.266    3.1841681    27.956679 
    4290   0.98157652   -1315.1248    -1.623245     21845.59    3.1848496    27.954684 
    4300   0.97633614   -1315.1298    6.4707958     21840.17      3.18564    27.952372 
    4310   0.97144778   -1315.1342    9.7145428    21837.966    3.1859616    27.951432 
    4320   0.96691016   -1315.1387    5.7460073    21840.528    3.1855879    27.952525 
    4330   0.96281892   -1315.1426   -2.4218199    21845.876     3.184808    27.954806 
    4340   0.95932341   -1315.1458   -8.7128414    21849.996    3.1842075    27.956563 
    4350   0.95653911   -1315.1491   -8.5176616    21849.821    3.1842329    27.956489 
    4360   0.95448148   -1315.1526   -2.0394514    21845.488    3.1848645    27.954641 
    4370   0.95306957   -1315.1552    5.8984507    21840.204    3.1856351    27.952387 
    4380   0.95219584   -1315.1572    9.4146558    21837.853     3.185978    27.951384 
    4390   0.95181071   -1315.1591    5.9407588    21840.124    3.1856467    27.952353 
    4400   0.95195903   -1315.1604   -1.8803489     21845.28    3.1848949    27.954552 
    4410   0.95274128   -1315.1608   -8.2261287    21849.474    3.1842835    27.956341 
    4420   0.95422849   -1315.1611   -8.4408523    21849.612    3.1842634      27.9564 
    4430   0.95639342   -1315.1615   -2.4225307    21845.627    3.1848444      27.9547 
    4440   0.95910765    -1315.161    5.3453023    21840.498    3.1855922    27.952512 
    4450   0.96220578   -1315.1597    9.1057469    21838.031    3.1859521    27.951459 
    4460   0.96556941   -1315.1582     6.104864    21840.035    3.1856597    27.952315 
    4470   0.96916833   -1315.1559   -1.3691483    21845.008    3.1849345    27.954436 
    4480   0.97302852   -1315.1526   -7.7487209    21849.272    3.1843129    27.956255 
    4490   0.97715223   -1315.1492   -8.3480081    21849.714    3.1842486    27.956443 
    4500   0.98145143   -1315.1457   -2.7786854    21846.074    3.1847792    27.954891 
    4510   0.98574605   -1315.1413    4.8074264    21841.112    3.1855026    27.952774 
    4520   0.98983079   -1315.1361    8.7865241    21838.547    3.1858768     27.95168 
    4530   0.99356335   -1315.1306    6.2381608      21840.3    3.1856211    27.952428 
    4540   0.99691022   -1315.1243  -0.88931897    21845.088    3.1849228     27.95447 
    4550   0.99991725   -1315.1172    -7.283638    21849.405    3.1842935    27.956312 
    4560    1.0026289   -1315.1099   -8.2432133    21850.127    3.1841883     27.95662 
    4570    1.0050181   -1315.1026   -3.1109832    21846.816     3.184671    27.955207 
    4580    1.0069799   -1315.0946    4.2845689    21842.016    3.1853708     27.95316 
    4590     1.008393   -1315.0859    8.4597011    21839.355    3.1857589    27.952025 
    4600     1.009203   -1315.0771    6.3447237    21840.853    3.1855404    27.952664 
    4610    1.0094656   -1315.0679  -0.43754535    21845.442    3.1848712    27.954621 
    4620    1.0093141   -1315.0579   -6.8294106    21849.784    3.1842384    27.956473 
    4630     1.008879    -1315.048   -8.1262554    21850.752    3.1840973    27.956886 
    4640     1.008216   -1315.0385   -3.4187949    21847.741    3.1845361    27.955602 
    4650    1.0072968   -1315.0285    3.7792184    21843.088    3.1852145    27.953617 
    4660    1.0060659   -1315.0182     8.129739    21840.324    3.1856176    27.952438 
    4670    1.0045208   -1315.0079    6.4297149    21841.559    3.1854375    27.952965 
    4680    1.0027538   -1314.9976 -0.0095966316    21845.929    3.1848003    27.954829 
    4690    1.0009234   -1314.9869   -6.3835226    21850.263    3.1841685    27.956678 
    4700   0.99917799   -1314.9764   -7.9958001    21851.443    3.1839965    27.957181 
    4710   0.99758605   -1314.9665   -3.7005995    21848.706    3.1843955    27.956013 
    4720   0.99612404   -1314.9565    3.2942702    21844.184    3.1850547    27.954085 
    4730   0.99472856   -1314.9462    7.8010368    21841.313    3.1854734     27.95286 
    4740   0.99337303   -1314.9363    6.4980187     21842.28    3.1853323    27.953272 
    4750   0.99211158   -1314.9263   0.39850344    21846.419    3.1847288    27.955038 
    4760   0.99105748   -1314.9161   -5.9436873    21850.725    3.1841012    27.956875 
    4770   0.99031239   -1314.9062   -7.8509578    21852.093    3.1839019    27.957458 
    4780   0.98989907   -1314.8969   -3.9558225    21849.612    3.1842635      27.9564 
    4790   0.98974627   -1314.8875    2.8310657    21845.218    3.1849039    27.954526 
    4800   0.98973655   -1314.8778    7.4759999    21842.247    3.1853372    27.953258 
    4810   0.98978191   -1314.8683    6.5523981    21842.956    3.1852338    27.953561 
    4820   0.98987181   -1314.8587   0.78870786    21846.866    3.1846636    27.955229 
    4830   0.99005892   -1314.8487   -5.5095364    21851.137    3.1840412     27.95705 
    4840   0.99039398   -1314.8388   -7.6928097    21852.684    3.1838159     27.95771 
    4850   0.99085956   -1314.8292   -4.1860638    21850.457    3.1841403     27.95676 
    4860   0.99135204   -1314.8193    2.3885791    21846.202    3.1847605    27.954945 
    4870   0.99172612   -1314.8089    7.1546614    21843.151    3.1852054    27.953644 
    4880   0.99186979   -1314.7984    6.5934813    21843.623    3.1851364    27.953846 
    4890   0.99175538   -1314.7875    1.1612036    21847.321    3.1845974    27.955423 
    4900   0.99142929   -1314.7759   -5.0821583    21851.564     3.183979    27.957232 
    4910   0.99094931    -1314.764   -7.5237751    21853.292    3.1837271    27.957969 
    4920    0.9903173   -1314.7521   -4.3943251    21851.329    3.1840132    27.957132 
    4930   0.98945774   -1314.7397     1.964258    21847.233    3.1846102    27.955385 
    4940   0.98825819   -1314.7264    6.8354987    21844.131    3.1850624    27.954062 
    4950   0.98664176   -1314.7126    6.6204841    21844.397    3.1850236    27.954176 
    4960   0.98461745   -1314.6983    1.5150233    21847.904    3.1845124    27.955671 
    4970   0.98227057    -1314.683   -4.6635682    21852.131    3.1838963    27.957474 
    4980   0.97970054   -1314.6671   -7.3471221    21854.051    3.1836166    27.958293 
    4990   0.97695282    -1314.651   -4.5845379    21852.364    3.1838624    27.957574 
    5000    0.9739949   -1314.6343    1.5545004    21848.448    3.1844331    27.955903 
    5010   0.97075302   -1314.6165    6.5159452    21845.323    3.1848886     27.95457 
    5020   0.96718076    -1314.598    6.6317969     21845.41    3.1848759    27.954608 
    5030   0.96330731   -1314.5789    1.8487376    21848.746    3.1843897     27.95603 
    5040   0.95922832   -1314.5587   -4.2559032    21852.968    3.1837744    27.957831 
    5050   0.95504609   -1314.5379   -7.1660643    21855.083    3.1834663    27.958733 
    5060   0.95080395   -1314.5168   -4.7605683    21853.678     3.183671    27.958134 
    5070   0.94646337   -1314.4951    1.1557375    21849.955    3.1842135    27.956546 
    5080   0.94193973   -1314.4724    6.1935427    21846.825    3.1846696    27.955211 
    5090      0.93717    -1314.449    6.6261615     21846.75    3.1846806    27.955179 
    5100   0.93216198   -1314.4251    2.1616126    21849.921    3.1842183    27.956532 
    5110   0.92698925   -1314.4004   -3.8602853    21854.136    3.1836043    27.958329 
    5120   0.92173769   -1314.3751   -6.9825735    21856.437     3.183269    27.959311 
    5130   0.91644548   -1314.3496   -4.9248865    21855.307    3.1834336    27.958829 
    5140   0.91108236   -1314.3238   0.76594962    21851.775    3.1839482    27.957322 
    5150   0.90558356   -1314.2972     5.867588    21848.643    3.1844046    27.955987 
    5160   0.89991295   -1314.2703    6.6043326    21848.406    3.1844392    27.955886 
    5170   0.89410823   -1314.2431    2.4551944    21851.407    3.1840019    27.957165 
    5180   0.88827461   -1314.2154   -3.4753396    21855.596    3.1833915    27.958952 
    5190   0.88253244   -1314.1875   -6.7960295    21858.062    3.1830324    27.960003 
    5200   0.87695823   -1314.1598   -5.0774823    21857.186      3.18316     27.95963 
    5210   0.87156216   -1314.1321   0.38520987     21853.83    3.1836488    27.958199 
    5220    0.8663339   -1314.0796    5.6392809    21850.719     3.184102    27.956872 
    5230   0.86124582   -1314.0517    6.5433013    21850.391    3.1841499    27.956732 
    5240   0.85635381   -1314.0241     2.600725    21853.272    3.1837301    27.957961 
    5250   0.85177331   -1313.9965   -3.2390889    21857.414    3.1831268    27.959727 
    5260   0.84763098    -1313.969    -6.651492     21859.95    3.1827576    27.960808 
    5270   0.84401068   -1313.9424   -5.1375863    21859.213    3.1828648    27.960494 
    5280   0.84093237   -1313.9163    0.1600748    21855.965    3.1833379    27.959109 
    5290   0.83837791   -1313.8905    5.3110267    21852.815    3.1837966    27.957766 
    5300   0.83634405   -1313.8653    6.5008197    21852.288    3.1838735    27.957541 
    5310   0.83488319   -1313.8409    2.8666551     21854.95    3.1834857    27.958676 
    5320   0.83410761   -1313.7925   -2.7223775    21859.007    3.1828949    27.960406 
    5330   0.83418906    -1313.745    -6.267099    21861.705     3.182502    27.961557 
    5340    0.8351582   -1313.6988   -5.1902691    21861.328    3.1825569    27.961396 
    5350   0.83701907   -1313.6784   -0.4353551    21858.402     3.182983    27.960148 
    5360    0.8397767   -1313.6343    4.7188821    21855.307    3.1834337    27.958828 
    5370   0.84338028    -1313.616    6.1949607    21854.542    3.1835451    27.958502 
    5380   0.84784602   -1313.5989     3.064559    21856.819    3.1832135    27.959473 
    5390   0.85324604   -1313.5584   -2.1782814     21860.59    3.1826644    27.961081 
    5400   0.85969114   -1313.5193    -5.751812    21863.245    3.1822778    27.962213 
    5410   0.86723083   -1313.5064   -5.1689021    21863.028    3.1823094    27.962121 
    5420   0.87584479   -1313.4952  -0.76147843    21860.259    3.1827125     27.96094 
    5430   0.88544886   -1313.4607    4.3054989    21857.144    3.1831661    27.959612 
    5440   0.89596029   -1313.4277    6.1574686    21856.149     3.183311    27.959188 
    5450   0.90734832   -1313.4209    3.3228302    21858.146    3.1830203    27.960039 
    5460   0.91962097   -1313.3911   -1.8655777    21861.792    3.1824893    27.961594 
    5470   0.93275499   -1313.3627   -5.6759885    21864.513    3.1820932    27.962754 
    5480   0.94672506   -1313.3852    -5.577406    21864.422    3.1821065    27.962715 
    5490   0.96145406    -1313.385   -1.2744372    21861.624    3.1825138    27.961522 
    5500   0.97676578   -1313.3861    3.9311603    21858.216      3.18301    27.960069 
    5510   0.99246934   -1313.4379    5.8929318    21856.745    3.1832243    27.959442 
    5520    1.0084077   -1313.4421    3.6923775    21858.217    3.1830099    27.960069 
    5530    1.0244459   -1313.4476   -1.2540064    21861.496    3.1825325    27.961467 
    5540     1.040475   -1313.4545   -5.2755034    21864.149    3.1821463    27.962598 
    5550    1.0563532    -1313.463   -5.4102858    21864.204    3.1821383    27.962622 
    5560    1.0718568   -1313.4732   -1.5756798    21861.606    3.1825165    27.961514 
    5570    1.0866705   -1313.4847    3.3834843    21858.248    3.1830054    27.960082 
    5580    1.1004266   -1313.4973    5.7934926    21856.566    3.1832503    27.959365 
    5590    1.1127807   -1313.4867    3.9769498    21857.767    3.1830753    27.959878 
    5600    1.1234054   -1313.5018  -0.95332819    21860.918    3.1826166    27.961221 
    5610    1.1320515   -1313.5178   -5.1862176    21863.591    3.1822275    27.962361 
    5620    1.1385074   -1313.5353   -5.6018571    21863.711    3.1822101    27.962412 
    5630    1.1425998   -1313.5542   -1.9087776    21861.083    3.1825926    27.961291 
    5640    1.1442546    -1313.574    3.1541881    21857.531    3.1831098    27.959777 
    5650    1.1436248   -1313.6193    5.7105722    21855.526    3.1834018    27.958922 
    5660    1.1411312   -1313.6411    4.1451727    21856.337    3.1832837    27.959268 
    5670    1.1374603   -1313.6884  -0.63384492    21859.164    3.1828719    27.960473 
    5680    1.1333868    -1313.712   -4.8038927    21861.678    3.1825059    27.961545 
    5690    1.1295647   -1313.7367      -5.4303    21861.829     3.182484    27.961609 
    5700    1.1264181   -1313.7873   -2.1890714      21859.3    3.1828522    27.960531 
    5710    1.1240749   -1313.8387    2.6394871    21855.711    3.1833748    27.959001 
    5720    1.1224798   -1313.8663     5.601047    21853.454    3.1837036    27.958038 
    5730     1.121492   -1313.9193    4.2359515    21853.955    3.1836307    27.958252 
    5740    1.1210731   -1313.9976  -0.45359999    21856.551    3.1832525    27.959359 
    5750    1.1211777   -1314.0273   -4.5518935    21858.951     3.182903    27.960382 
    5760    1.1217147   -1314.0579    -5.285848    21859.113    3.1828794    27.960451 
    5770    1.1225977   -1314.0891   -2.1235405    21856.683    3.1832332    27.959415 
    5780    1.1236943   -1314.1453    2.4426082     21853.22    3.1837376    27.957939 
    5790    1.1249084   -1314.2017    5.1861583    21850.964    3.1840663    27.956977 
    5800     1.126024   -1314.2338     4.220162    21851.263    3.1840229    27.957104 
    5810    1.1269561   -1314.2658   0.12498817    21853.633    3.1836775    27.958115 
    5820    1.1276949   -1314.2976   -4.0531735    21856.062    3.1833237     27.95915 
    5830    1.1282504   -1314.3294    -5.224285    21856.498    3.1832602    27.959336 
    5840    1.1285952   -1314.3612   -2.5313365    21854.372    3.1835698     27.95843 
    5850    1.1286416   -1314.3925    2.0283273    21851.016    3.1840589    27.956998 
    5860    1.1282685   -1314.4232     5.076458    21848.667    3.1844011    27.955997 
    5870    1.1273799   -1314.4533    4.3568067    21848.819     3.184379    27.956062 
    5880    1.1259506   -1314.4828   0.41538475     21851.11    3.1840451    27.957039 
    5890     1.124025   -1314.5113   -3.8154078    21853.603    3.1836819    27.958102 
    5900      1.12167   -1314.5391   -5.2052575    21854.222    3.1835918    27.958366 
    5910    1.1189166   -1314.5664   -2.7348565    21852.288    3.1838735    27.957541 
    5920    1.1157356   -1314.5927    1.7626081    21849.023    3.1843493    27.956148 
    5930    1.1120626   -1314.6179    4.9538161    21846.635    3.1846974     27.95513 
    5940    1.1078557   -1314.6422    4.4742914    21846.686      3.18469    27.955152 
    5950    1.1031391   -1314.6655   0.68977287    21848.934    3.1843622    27.956111 
    5960    1.0980019   -1314.6876   -3.5840099     21851.52    3.1839853    27.957214 
    5970    1.0925516   -1314.7087    -5.183995    21852.346     3.183865    27.957566 
    5980    1.0868576   -1314.7292   -2.9350773     21850.63    3.1841151    27.956834 
    5990    1.0809266   -1314.7487    1.4929852    21847.483    3.1845738    27.955492 
    6000    1.0747271    -1314.767    4.8173905    21845.079    3.1849241    27.954466 
    6010    1.0682435   -1314.7843    4.5731322    21845.047    3.1849288    27.954453 
    6020    1.0615189   -1314.8007   0.94953633    21847.262    3.1846059    27.955398 
    6030    1.0546539    -1314.816   -3.3572119    21849.941    3.1842154     27.95654 
    6040    1.0477632   -1314.8305   -5.1585394    21850.972    3.1840652     27.95698 
    6050    1.0409224   -1314.8444    -3.129675    21849.474    3.1842836    27.956341 
    6060    1.0341446   -1314.8574    1.2224926    21846.447    3.1847248     27.95505 
    6070    1.0274028   -1314.8695    4.6710914     21844.03    3.1850771    27.954019 
    6080    1.0206818   -1314.8809    4.6578838    21843.913    3.1850942    27.953969 
    6090    1.0140189   -1314.8914    1.1993334    21846.083    3.1847778    27.954895 
    6100    1.0075044   -1314.9012    -3.130783    21848.841    3.1843758    27.956071 
    6110     1.001242   -1314.9102   -5.1252981    21850.062    3.1841979    27.956592 
    6120   0.99529934   -1314.9189      -3.3155    21848.769    3.1843863     27.95604 
    6130    0.9896845    -1314.927   0.95423467    21845.856    3.1848109    27.954798 
    6140   0.98436698   -1314.9343    4.5182311     21843.42     3.185166    27.953759 
    6150   0.97932559    -1314.941    4.7319558    21843.208    3.1851969    27.953668 
    6160   0.97458845   -1314.9472    1.4422655     21845.32     3.184889    27.954569 
    6170   0.97023549   -1314.9528   -2.9023471     21848.14     3.184478    27.955772 
    6180   0.96636215   -1314.9578   -5.0827671    21849.534    3.1842748    27.956367 
    6190   0.96303186   -1314.9627   -3.4917078    21848.435    3.1844349    27.955898 
    6200   0.96025238   -1314.9671    0.6888055    21845.629     3.184844    27.954701 
    6210   0.95799298    -1314.971    4.3594663    21843.169    3.1852027    27.953652 
    6220   0.95622918   -1314.9744    4.7960808    21842.854    3.1852486    27.953517 
    6230   0.95498161   -1314.9775    1.6788833    21844.894    3.1849511    27.954388 
    6240   0.95431974   -1314.9801    -2.671851    21847.759    3.1845335     27.95561 
    6250   0.95432727   -1314.9823   -5.0315279    21849.312    3.1843071    27.956272 
    6260   0.95505425   -1314.9845   -3.6593701    21848.397    3.1844405    27.955882 
    6270   0.95649012   -1314.9864   0.42497432    21845.691    3.1848349    27.954728 
    6280   0.95857613    -1314.988    4.1936964    21843.201     3.185198    27.953665 
    6290   0.96124663   -1314.9892    4.8493489    21842.775    3.1852602    27.953483 
    6300   0.96446763   -1314.9902    1.9082818     21844.73     3.184975    27.954318 
    6310   0.96824274   -1314.9909    -2.440477    21847.623    3.1845533    27.955551 
    6320   0.97258118   -1314.9913   -4.9732092    21849.318    3.1843063    27.956274 
    6330   0.97745099   -1314.9918   -3.8204827    21848.573    3.1844148    27.955957 
    6340   0.98275221   -1314.9923   0.16067465    21845.958    3.1847961    27.954841 
    6350   0.98833076   -1314.9924    4.0191224    21843.428     3.185165    27.953762 
    6360   0.99402459   -1314.9924    4.8904252    21842.875    3.1852455    27.953526 
    6370   0.99971006   -1314.9923    2.1295958    21844.725    3.1849758    27.954315 
    6380    1.0053162   -1314.9919   -2.2087017    21847.621    3.1845535    27.955551 
    6390    1.0107982   -1314.9914   -4.9078995    21849.434    3.1842894    27.956324 
    6400    1.0160909   -1314.9911   -3.9745701    21848.839    3.1843761     27.95607 
    6410    1.0210802   -1314.9908  -0.10277767    21846.297    3.1847466    27.954986 
    6420     1.025614   -1314.9903    3.8380844     21843.71    3.1851238    27.953882 
    6430    1.0295466   -1314.9896    4.9226261    21843.012    3.1852256    27.953585 
    6440    1.0327853    -1314.989    2.3468729    21844.733    3.1849747    27.954319 
    6450    1.0353036   -1314.9881    -1.972034    21847.606    3.1845558    27.955544 
    6460    1.0371126   -1314.9872   -4.8308662    21849.513    3.1842779    27.956358 
    6470    1.0382119   -1314.9864   -4.1167789     21849.05    3.1843454     27.95616 
    6480     1.038557   -1314.9857  -0.36055041    21846.569    3.1847069    27.955102 
    6490    1.0380696   -1314.9848    3.6551597    21843.917    3.1850936    27.953971 
    6500     1.036683   -1314.9837    4.9500239    21843.064     3.185218    27.953607 
    6510    1.0343905   -1314.9826    2.5635764    21844.642    3.1849879     27.95428 
    6520    1.0312613   -1314.9813   -1.7275017    21847.481     3.184574    27.955491 
    6530    1.0274134   -1314.9798   -4.7394023    21849.473    3.1842836    27.956341 
    6540    1.0229627   -1314.9784   -4.2445436    21849.141    3.1843321    27.956199 
    6550    1.0179882    -1314.977  -0.61033238    21846.728    3.1846838     27.95517 
    6560    1.0125359   -1314.9754    3.4721144    21844.021    3.1850785    27.954015 
    6570    1.0066578   -1314.9735    4.9735886    21843.022    3.1852242    27.953589 
    6580    1.0004531   -1314.9715    2.7798556    21844.467    3.1850135    27.954205 
    6590   0.99407901   -1314.9691   -1.4756079    21847.278    3.1846035    27.955405 
    6600    0.9877203   -1314.9665   -4.6345235    21849.368     3.184299    27.956296 
    6610   0.98153798   -1314.9639    -4.359478    21849.184    3.1843257    27.956217 
    6620    0.9756335   -1314.9612  -0.85462617    21846.864     3.184664    27.955228 
    6630   0.97005284   -1314.9582    3.2852963    21844.128    3.1850628    27.954061 
    6640   0.96482598   -1314.9548    4.9885516    21843.009     3.185226    27.953584 
    6650   0.96001225   -1314.9512      2.99022    21844.342    3.1850316    27.954152 
    6660   0.95571806   -1314.9472   -1.2220066    21847.145     3.184623    27.955348 
    6670   0.95207468   -1314.9428   -4.5216106    21849.351    3.1843015    27.956288 
    6680   0.94919307   -1314.9383   -4.4664958    21849.339    3.1843032    27.956283 
    6690   0.94712888   -1314.9336   -1.0978283    21847.138     3.184624    27.955345 
    6700   0.94588202   -1314.9285    3.0909012    21844.402    3.1850229    27.954177 
    6710   0.94542851    -1314.923    4.9918559    21843.187    3.1852001    27.953659 
    6720   0.94575769   -1314.9171    3.1924737    21844.425    3.1850196    27.954187 
    6730   0.94688271   -1314.9107  -0.96815219    21847.233    3.1846101    27.955385 
    6740   0.94881147   -1314.9038   -4.4018073     21849.57    3.1842696    27.956382 
    6750   0.95149528   -1314.8966   -4.5670361    21849.748    3.1842436    27.956458 
    6760   0.95479092   -1314.8892   -1.3421931    21847.686    3.1845441    27.955579 
    6770    0.9584658   -1314.8812    2.8856308     21844.97    3.1849401     27.95442 
    6780   0.96224809   -1314.8726    4.9792589    21843.674    3.1851291    27.953867 
    6790    0.9658938   -1314.8636    3.3817508    21844.825    3.1849613    27.954358 
    6800    0.9692315    -1314.854  -0.71912204    21847.639     3.184551    27.955558 
    6810    0.9721619   -1314.8437   -4.2799232    21850.104    3.1841917     27.95661 
    6820   0.97462244   -1314.8331   -4.6650139    21850.471    3.1841383    27.956766 
    6830   0.97655055   -1314.8222   -1.5899491     21848.55    3.1844182    27.955947 
    6840   0.97787684   -1314.8108    2.6697014    21845.851    3.1848116    27.954796 
    6850   0.97855274   -1314.7988     4.953807    21844.467    3.1850134    27.954205 
    6860   0.97858846   -1314.7863    3.5637003    21845.517    3.1848603    27.954653 
    6870   0.97806728   -1314.7734  -0.46747723    21848.321    3.1844516    27.955849 
    6880   0.97711976     -1314.76   -4.1478774    21850.899    3.1840759    27.956949 
    6890    0.9758724   -1314.7463   -4.7528962    21851.444    3.1839965    27.957181 
    6900   0.97440516   -1314.7326    -1.835137    21849.657    3.1842569    27.956419 
    6910   0.97274627   -1314.7185    2.4467866    21846.972    3.1846483    27.955274 
    6920   0.97090534   -1314.7041    4.9166432    21845.491    3.1848641    27.954642 
    6930   0.96891811   -1314.6895     3.737245    21846.427    3.1847277    27.955041 
    6940   0.96686797   -1314.6747  -0.21576932    21849.201    3.1843233    27.956224 
    6950   0.96486714   -1314.6597   -4.0088361    21851.874    3.1839338    27.957364 
    6960   0.96301121   -1314.6447   -4.8338045    21852.581    3.1838308    27.957666 
    6970   0.96134055     -1314.63   -2.0804866    21850.917    3.1840733    27.956956 
    6980   0.95983683   -1314.6152    2.2146775    21848.233    3.1844644    27.955812 
    6990   0.95845726   -1314.6004     4.866165    21846.639    3.1846967    27.955132 
    7000   0.95718169   -1314.5858    3.9015214    21847.437    3.1845804    27.955472 
    7010   0.95603872   -1314.5712  0.035996693    21850.154    3.1841844    27.956631 
    7020   0.95509257   -1314.5567    -3.861962    21852.894    3.1837852    27.957799 
    7030    0.9544021   -1314.5426    -4.906256     21853.74     3.183662     27.95816 
    7040   0.95398339    -1314.529    -2.324168    21852.178    3.1838895    27.957494 
    7050   0.95380439   -1314.5157    1.9752948    21849.477    3.1842831    27.956342 
    7060   0.95381592   -1314.5026    4.8042903    21847.747    3.1845353    27.955604 
    7070   0.95399674   -1314.4899    4.0585454    21848.378    3.1844432    27.955874 
    7080   0.95437934   -1314.4777   0.29013678    21851.006    3.1840602    27.956994 
    7090   0.95503739   -1314.4658   -3.7045076    21853.782    3.1836559    27.958178 
    7100   0.95604356   -1314.4545   -4.9671406    21854.741    3.1835161    27.958587 
    7110   0.95742812    -1314.444   -2.5629882    21853.262    3.1837316    27.957956 
    7120   0.95916776   -1314.4341    1.7315461    21850.525    3.1841303    27.956789 
    7130   0.96121184   -1314.4246     4.733386     21848.64    3.1844051    27.955985 
    7140   0.96352635   -1314.4158    4.2101629    21849.081    3.1843408    27.956173 
    7150   0.96612281   -1314.4076   0.54824765    21851.594    3.1839747    27.957245 
    7160   0.96905045   -1314.3999   -3.5348081     21854.38    3.1835687    27.958433 
    7170    0.9723568    -1314.393   -5.0146017    21855.434    3.1834151    27.958883 
    7180   0.97604548    -1314.387   -2.7950564    21854.027    3.1836202    27.958283 
    7190   0.98006161   -1314.3817    1.4850386    21851.247    3.1840252    27.957097 
    7200   0.98431582   -1314.3769    4.6545597    21849.198    3.1843238    27.956223 
    7210   0.98872965   -1314.3729    4.3570737    21849.435    3.1842891    27.956325 
    7220   0.99326933   -1314.3695   0.81099721    21851.817    3.1839421     27.95734 
    7230   0.99794302   -1314.3667   -3.3518301    21854.602    3.1835364    27.958528 
    7240    1.0027632   -1314.3645   -5.0471169    21855.745    3.1833699    27.959015 
    7250    1.0077018   -1314.3632   -3.0186245     21854.41    3.1835643    27.958446 
    7260    1.0126707   -1314.3626    1.2372448    21851.593    3.1839747    27.957245 
    7270    1.0175434   -1314.3624    4.5685871    21849.385    3.1842965    27.956303 
    7280    1.0222011   -1314.3627    4.4992963    21849.421    3.1842912    27.956319 
    7290    1.0265717   -1314.3636    1.0779619    21851.672    3.1839633    27.957278 
    7300    1.0306308   -1314.3647   -3.1560218    21854.457    3.1835575    27.958466 
    7310    1.0343645   -1314.3663   -5.0649875    21855.697    3.1833769    27.958995 
    7320     1.037722   -1314.3686   -3.2340828    21854.451    3.1835584    27.958463 
    7330    1.0405916   -1314.3713   0.98717747    21851.617    3.1839713    27.957255 
    7340    1.0428214   -1314.3741    4.4734576    21849.268    3.1843135    27.956253 
    7350    1.0442677   -1314.3771    4.6337781    21849.118    3.1843354    27.956189 
    7360    1.0448395   -1314.3804    1.3454831    21851.247    3.1840251    27.957097 
    7370    1.0445056   -1314.3838   -2.9510395    21854.044    3.1836177     27.95829 
    7380    1.0432643   -1314.3873   -5.0714654    21855.396    3.1834207    27.958866 
    7390    1.0411015   -1314.3911   -3.4442731     21854.26    3.1835863    27.958382 
    7400    1.0379782   -1314.3952   0.73214846    21851.432    3.1839982    27.957176 
    7410    1.0338629   -1314.3992     4.366489    21848.964    3.1843579    27.956123 
    7420     1.028796   -1314.4031    4.7581589    21848.641    3.1844049    27.955986 
    7430    1.0229415   -1314.4072    1.6123473     21850.66    3.1841108    27.956847 
    7440    1.0165896   -1314.4111   -2.7359716    21853.476    3.1837003    27.958048 
    7450    1.0101018    -1314.415   -5.0629442    21854.955    3.1834849    27.958679 
    7460    1.0038259   -1314.4191   -3.6431612     21853.95    3.1836313     27.95825 
    7470   0.99802895   -1314.4233   0.47947248    21851.156    3.1840385    27.957058 
    7480   0.99287663   -1314.4273    4.2546444    21848.597    3.1844114    27.955967 
    7490   0.98845882   -1314.4312    4.8775426    21848.129    3.1844796    27.955767 
    7500   0.98482846    -1314.435    1.8808286     21850.06    3.1841982    27.956591 
    7510   0.98202018   -1314.4386    -2.511829    21852.921    3.1837812    27.957811 
    7520   0.98003643   -1314.4419   -5.0438914    21854.556    3.1835431    27.958508 
    7530   0.97881889   -1314.4453   -3.8385908    21853.716    3.1836654     27.95815 
    7540   0.97823665   -1314.4485   0.21856328    21850.992    3.1840624    27.956988 
    7550   0.97811018   -1314.4511    4.1260894    21848.374    3.1844438    27.955872 
    7560   0.97826291   -1314.4534    4.9810442    21847.784    3.1845299     27.95562 
    7570     0.978569   -1314.4552    2.1431723    21849.643    3.1842588    27.956413 
    7580   0.97896627   -1314.4563   -2.2819068    21852.563    3.1838334    27.957658 
    7590     0.979427   -1314.4569   -5.0130564    21854.369    3.1835703    27.958429 
    7600   0.97990996    -1314.457   -4.0257211    21853.717    3.1836653     27.95815 
    7610   0.98033034   -1314.4565 -0.043658841    21851.087    3.1840484    27.957029 
    7620   0.98057086   -1314.4551    3.9882066    21848.437    3.1844347    27.955899 
    7630   0.98052644   -1314.4529    5.0751055    21847.745    3.1845355    27.955604 
    7640   0.98014958   -1314.4498    2.4038839     21849.55    3.1842724    27.956373 
    7650   0.97946227   -1314.4458   -2.0441687    21852.543    3.1838363     27.95765 
    7660   0.97852548   -1314.4408   -4.9710004    21854.541    3.1835453    27.958502 
    7670   0.97738924   -1314.4351   -4.2075391    21854.101    3.1836094    27.958314 
    7680   0.97606069   -1314.4286  -0.31221273    21851.595    3.1839745    27.957245 
    7690   0.97451367   -1314.4211    3.8345275    21848.935    3.1843621    27.956111 
    7700   0.97273157   -1314.4126    5.1525262    21848.159    3.1844752     27.95578 
    7710   0.97074979   -1314.4032     2.655736    21849.918    3.1842189     27.95653 
    7720   0.96866325    -1314.393   -1.8053954    21852.988    3.1837714     27.95784 
    7730   0.96658998   -1314.3818    -4.923944    21855.181     3.183452    27.958775 
    7740   0.96461403   -1314.3702   -4.3898783     21854.96    3.1834843     27.95868 
    7750   0.96274497    -1314.358  -0.59279034    21852.582    3.1838306    27.957667 
    7760   0.96091826   -1314.3451    3.6593753    21849.913    3.1842195    27.956528 
    7770   0.95903104   -1314.3317    5.2076831    21849.041    3.1843466    27.956156 
    7780   0.95698436   -1314.3179    2.8932457    21850.731    3.1841004    27.956877 
    7790   0.95470327   -1314.3036   -1.5709429    21853.849    3.1836461    27.958207 
    7800   0.95212973   -1314.2891   -4.8772062    21856.204     3.183303    27.959211 
    7810      0.94921   -1314.2747   -4.5779289    21856.168    3.1833083    27.959196 
    7820   0.94590499   -1314.2605  -0.88987244    21853.882    3.1836412    27.958221 
    7830   0.94223032   -1314.2464    3.4601384    21851.158    3.1840381    27.957059 
    7840   0.93830223   -1314.2325    5.2413224    21850.133    3.1841876    27.956622 
    7850   0.93435452   -1314.2192    3.1218434    21851.684    3.1839615    27.957284 
    7860   0.93070891   -1314.2063   -1.3300043    21854.777    3.1835109    27.958602 
    7870    0.9277104    -1314.194   -4.8147978    21857.224    3.1831545    27.959646 
    7880   0.92565749   -1314.1828    -4.751655     21857.31     3.183142    27.959682 
    7890    0.9247582   -1314.1728   -1.1814013     21855.06    3.1834696    27.958723 
    7900   0.92512803   -1314.1637    3.2582389    21852.228    3.1838822    27.957516 
    7910   0.92682158   -1314.1556    5.2715695    21850.995    3.1840619     27.95699 
    7920   0.92987048   -1314.1489     3.354523    21852.353     3.183864    27.957569 
    7930   0.93429886   -1314.1433   -1.0752304    21855.366    3.1834251    27.958854 
    7940   0.94010588   -1314.1389   -4.7343825    21857.859    3.1830621    27.959917 
    7950     0.947231   -1314.1362   -4.9125504    21858.029    3.1830372    27.959989 
    7960   0.95553184    -1314.135   -1.4714275    21855.786    3.1833639    27.959033 
    7970   0.96479779   -1314.1351    3.0483804    21852.816    3.1837966    27.957766 
    7980   0.97479771   -1314.1365    5.2933549    21851.341    3.1840114    27.957137 
    7990   0.98533577   -1314.1394     3.587965    21852.468    3.1838472    27.957618 
    8000   0.99628068   -1314.1436  -0.80705029    21855.364    3.1834253    27.958853 
    8010    1.0075498   -1314.1489   -4.6331669    21857.873      3.18306    27.959923 
    8020     1.019059   -1314.1557   -5.0551808    21858.109    3.1830256    27.960023 
    8030    1.0306733    -1314.164   -1.7531531    21855.861     3.183353    27.959065 
    8040    1.0421907   -1314.1735    2.8371462    21852.748    3.1838064    27.957737 
    8050    1.0533693   -1314.1839    5.3116292    21851.026    3.1840573    27.957003 
    8060    1.0639751   -1314.1954    3.8246107    21851.915    3.1839278    27.957382 
    8070    1.0738138   -1314.2079   -0.5257678    21854.689    3.1835237    27.958565 
    8080    1.0827204   -1314.2213   -4.5140448    21857.214    3.1831559    27.959642 
    8090    1.0905162   -1314.2357    -5.184872    21857.526    3.1831105    27.959775 
    8100     1.096973   -1314.2512   -2.0343484    21855.291    3.1834361    27.958822 
    8110    1.1018277   -1314.2675    2.6144022    21852.052    3.1839078    27.957441 
    8120    1.1048676   -1314.2845    5.3146521    21850.095     3.184193    27.956606 
    8130    1.1060624   -1314.3022    4.0530145    21850.749    3.1840977    27.956885 
    8140    1.1056799   -1314.3206   -0.2396001    21853.401    3.1837114    27.958016 
    8150    1.1043065   -1314.3396   -4.3788595    21855.944    3.1833409      27.9591 
    8160    1.1027234   -1314.3593   -5.2950419    21856.342     3.183283     27.95927 
    8170    1.1016702   -1314.3801   -2.3003351    21854.138    3.1836039     27.95833 
    8180    1.1016221   -1314.4014    2.3997037    21850.802    3.1840901    27.956907 
    8190    1.1027071   -1314.4233    5.3216207    21848.641     3.184405    27.955986 
    8200    1.1047866   -1314.4458    4.2866685    21849.094     3.184339    27.956179 
    8210    1.1076013   -1314.4689  0.055398499    21851.659    3.1839652    27.957273 
    8220    1.1108797   -1314.4923   -4.2351511    21854.261     3.183586    27.958382 
    8230    1.1143687   -1314.5164   -5.4049918     21854.79     3.183509    27.958608 
    8240    1.1178224   -1314.5412    -2.580407    21852.664    3.1838188    27.957701 
    8250    1.1209982   -1314.5663    2.1585364    21849.267    3.1843137    27.956253 
    8260    1.1236902   -1314.5915    5.3004749    21846.927    3.1846548    27.955254 
    8270    1.1257814   -1314.6168    4.5042299    21847.189    3.1846165    27.955367 
    8280    1.1272739   -1314.6422   0.35410417     21849.67    3.1842549    27.956425 
    8290    1.1282658   -1314.6674   -4.0710321    21852.336    3.1838665    27.957562 
    8300     1.128878   -1314.6926   -5.4892938     21853.01    3.1837683    27.957849 
    8310    1.1291755   -1314.7179   -2.8416614    21850.989    3.1840628    27.956987 
    8320    1.1291315   -1314.7428    1.9241688    21847.569    3.1845612    27.955528 
    8330    1.1286527   -1314.7672    5.2781063    21845.091    3.1849225    27.954471 
    8340    1.1276461   -1314.7911    4.7214767    21845.204     3.184906     27.95452 
    8350    1.1260758   -1314.8143   0.65974779    21847.642    3.1845505     27.95556 
    8360    1.1239721   -1314.8368   -3.8940048    21850.416    3.1841463    27.956743 
    8370    1.1213885   -1314.8585    -5.562561    21851.286    3.1840195    27.957114 
    8380    1.1183445   -1314.8798   -3.1021108    21849.426    3.1842905    27.956321 
    8390    1.1147992   -1314.9002    1.6780457    21846.041     3.184784    27.954877 
    8400    1.1106778   -1314.9195    5.2373648    21843.475     3.185158    27.953782 
    8410    1.1059307   -1314.9379    4.9239491    21843.481    3.1851571    27.953785 
    8420    1.1005813   -1314.9552   0.96123439    21845.912    3.1848028    27.954822 
    8430    1.0947248   -1314.9713   -3.7118458    21848.825    3.1843781    27.956064 
    8440    1.0884789   -1314.9864   -5.6299901    21849.926    3.1842176    27.956534 
    8450    1.0819229   -1315.0008   -3.3654942    21848.265    3.1844597    27.955825 
    8460    1.0750701   -1315.0142    1.4168382     21844.95     3.184943    27.954411 
    8470    1.0678939   -1315.0263    5.1747414    21842.326    3.1853257    27.953292 
    8480    1.0603865   -1315.0375    5.1079503    21842.241    3.1853379    27.953256 
    8490    1.0526054   -1315.0477     1.255063    21844.671    3.1849836    27.954292 
    8500     1.044673   -1315.0568   -3.5274296    21847.729    3.1845379    27.955597 
    8510    1.0367297    -1315.065     -5.69358    21849.065    3.1843431    27.956167 
    8520    1.0288754   -1315.0727   -3.6328647    21847.609    3.1845554    27.955545 
    8530    1.0211432   -1315.0797    1.1404625    21844.366    3.1850281    27.954162 
    8540     1.013523   -1315.0857      5.09121    21841.679    3.1854199    27.953016 
    8550    1.0060168   -1315.0911     5.275654     21841.49    3.1854475    27.952935 
    8560   0.99868368   -1315.0958    1.5446856    21843.897    3.1850966    27.953962 
    8570   0.99164016   -1315.0998   -3.3361259    21847.073    3.1846335    27.955317 
    8580   0.98501741   -1315.1033   -5.7477883    21848.622    3.1844077    27.955978 
    8590   0.97890617   -1315.1066   -3.8980745    21847.353    3.1845927    27.955436 
    8600   0.97333054   -1315.1096   0.85544914    21844.167    3.1850572    27.954077 
    8610   0.96826885    -1315.112    4.9935918    21841.395    3.1854613    27.952895 
    8620   0.96370557   -1315.1141    5.4341768    21841.073    3.1855083    27.952758 
    8630   0.95967562   -1315.1159    1.8375114    21843.424    3.1851655     27.95376 
    8640   0.95626839   -1315.1172   -3.1303471    21846.689    3.1846895    27.955153 
    8650   0.95358854   -1315.1182    -5.785095    21848.427    3.1844361    27.955894 
    8660   0.95170273   -1315.1193   -4.1539756    21847.329    3.1845962    27.955426 
    8670   0.95061069   -1315.1203   0.56832242    21844.189     3.185054    27.954087 
    8680   0.95026105   -1315.1207    4.8876765    21841.322    3.1854721    27.952864 
    8690   0.95059918   -1315.1208    5.5886193    21840.852    3.1855406    27.952663 
    8700   0.95161066   -1315.1207    2.1380524     21843.13    3.1852084    27.953635 
    8710   0.95332638   -1315.1201   -2.9061886    21846.469    3.1847215    27.955059 
    8720   0.95578331   -1315.1191   -5.8024383    21848.393    3.1844411     27.95588 
    8730   0.95896739    -1315.118   -4.3987283    21847.473    3.1845752    27.955488 
    8740    0.9627789   -1315.1166   0.27937382     21844.39    3.1850246    27.954173 
    8750   0.96704457   -1315.1145    4.7721359     21841.44    3.1854549    27.952914 
    8760    0.9715683   -1315.1118    5.7362736    21840.829     3.185544    27.952653 
    8770    0.9761844   -1315.1086    2.4426057    21843.038    3.1852217    27.953596 
    8780   0.98077637   -1315.1046   -2.6680849    21846.459     3.184723    27.955055 
    8790   0.98525046   -1315.0998   -5.8049586    21848.583    3.1844135    27.955961 
    8800   0.98948879   -1315.0946   -4.6382413    21847.861    3.1845186    27.955653 
    8810     0.993323   -1315.0888 -0.017946714     21844.86    3.1849561    27.954373 
    8820   0.99655448    -1315.082    4.6402657    21841.845    3.1853957    27.953087 
    8830   0.99901184   -1315.0743    5.8710368    21841.105    3.1855037    27.952771 
    8840    1.0006063   -1315.0658    2.7463687    21843.251    3.1851907    27.953687 
    8850    1.0013452   -1315.0562   -2.4192344    21846.758    3.1846793    27.955183 
    8860    1.0012926   -1315.0456   -5.7944466    21849.091    3.1843393    27.956178 
    8870     1.000508   -1315.0345   -4.8734292    21848.585    3.1844131    27.955962 
    8880   0.99900607   -1315.0227  -0.32425958    21845.684     3.184836    27.954725 
    8890   0.99676757   -1315.0098    4.4913593    21842.619    3.1852829    27.953417 
    8900   0.99379063   -1314.9959    5.9920605    21841.755    3.1854089    27.953048 
    8910   0.99014085   -1314.9814    3.0485413    21843.837    3.1851053    27.953937 
    8920    0.9859601   -1314.9658   -2.1602022    21847.428    3.1845817    27.955468 
    8930   0.98142449   -1314.9494   -5.7712736    21849.973    3.1842108    27.956554 
    8940   0.97668072   -1314.9325   -5.1047514    21849.691     3.184252    27.956433 
    8950   0.97180569   -1314.9152  -0.64041627      21846.9    3.1846587    27.955243 
    8960   0.96681588   -1314.8969    4.3241483    21843.789    3.1851122    27.953916 
    8970   0.96171564    -1314.878    6.0980537    21842.798    3.1852568    27.953493 
    8980   0.95654477   -1314.8585    3.3484118    21844.804    3.1849642    27.954349 
[...]
   37860    123.14525   -1048.4171    9671.0459    19403.822    3.5856296    26.871738 
   37870    123.52538   -1047.3932    9699.4325    19399.683    3.5863948    26.869827 
   37880    123.68706   -1046.2168    9734.9205    19394.485     3.587356    26.867427 
   37890    123.61062   -1044.6094    9779.0678    19388.346    3.5884918    26.864592 
   37900    123.30769   -1042.6057    9830.8926    19381.414    3.5897752     26.86139 
   37910    122.82734   -1040.4396    9887.5798    19373.864    3.5911742    26.857902 
   37920    122.25622   -1037.9812    9948.4231    19365.888    3.5926532    26.854216 
   37930    121.71016   -1035.6341    10008.753    19357.693    3.5941741    26.850427 
   37940    121.30115   -1033.4278    10066.473    19349.485    3.5956988    26.846632 
   37950    121.11824   -1031.5817    10118.422    19341.461    3.5971905     26.84292 
   37960    121.21087   -1030.3321    10161.742      19333.8     3.598616    26.839375 
   37970    121.59215   -1029.3489    10198.027    19326.652    3.5999469    26.836067 
   37980     122.2335   -1029.0061    10224.364    19320.142    3.6011598    26.833054 
   37990    123.08491   -1028.9387     10243.31    19314.366    3.6022369     26.83038 
   38000    124.08166   -1029.3567    10253.635     19309.39     3.603165    26.828076 
   38010    125.14703   -1030.0917     10256.89    19305.256    3.6039367    26.826161 
   38020    126.18908   -1030.9864    10254.644    19301.979    3.6045486    26.824643 
   38030    127.10879   -1032.0042    10247.716    19299.554    3.6050014    26.823519 
   38040    127.79661   -1033.0985    10237.042    19297.965    3.6052983    26.822783 
   38050    128.14485   -1034.3708    10222.567    19297.178    3.6054453    26.822419 
   38060    128.05674   -1035.1393    10209.668    19297.152    3.6054501    26.822407 
   38070    127.46865   -1035.6042    10197.467    19297.847    3.6053203    26.822728 
   38080    126.36946   -1035.9732    10184.846    19299.225    3.6050629    26.823367 
   38090    124.82559   -1036.1399    10172.664    19301.247    3.6046852    26.824304 
   38100    122.97542   -1036.0727    10160.985    19303.876    3.6041943    26.825522 
   38110    121.01282   -1035.9153     10148.42    19307.075    3.6035971    26.827003 
   38120    119.13661   -1035.8543    10133.119    19310.805     3.602901    26.828731 
   38130    117.51297   -1036.0477    10113.427    19315.017    3.6021155    26.830681 
   38140     116.2474   -1036.3964    10089.614    19319.646    3.6012523    26.832824 
   38150    115.38543    -1037.049    10060.499    19324.614    3.6003265    26.835124 
   38160     114.9277   -1038.1842    10025.039    19329.824    3.5993562    26.837535 
   38170    114.84183    -1039.645    9984.8608    19335.156    3.5983636    26.840003 
   38180    115.07816   -1041.3715    9941.2003    19340.474    3.5973742    26.842463 
   38190    115.57645   -1043.3587    9895.1091    19345.627    3.5964159    26.844847 
   38200    116.27131   -1045.3459    9849.5576    19350.458    3.5955181    26.847081 
   38210    117.09234   -1047.3337    9805.7675    19354.806    3.5947102    26.849092 
   38220    117.96593   -1049.3671    9764.6754    19358.519    3.5940208    26.850809 
   38230    118.82003   -1051.0269    9730.4306    19361.452    3.5934763    26.852165 
   38240    119.58021   -1052.3088    9704.1977    19363.482    3.5930997    26.853103 
   38250    120.17909   -1053.4655     9685.221     19364.51    3.5929089    26.853579 
   38260    120.55634   -1053.9239    9678.2775    19364.467    3.5929169    26.853559 
   38270    120.66951   -1053.9222    9682.2309     19363.32    3.5931298    26.853028 
   38280    120.49379    -1053.428    9697.4646    19361.076    3.5935462    26.851991 
   38290    120.03313   -1052.2516    9725.0503    19357.782    3.5941576    26.850468 
   38300    119.32514   -1050.6186    9762.7453    19353.527    3.5949479    26.848501 
   38310    118.44251   -1048.5088    9809.6094    19348.432    3.5958945    26.846145 
   38320    117.47618    -1046.198    9862.2591    19342.653    3.5969689    26.843471 
   38330      116.536    -1043.645    9919.2891    19336.367    3.5981382    26.840563 
   38340    115.73666   -1041.1602    9976.7582    19329.768    3.5993665     26.83751 
   38350    115.18415   -1038.9674    10031.404    19323.049     3.600618      26.8344 
   38360    114.96828   -1037.1442    10081.199    19316.397     3.601858     26.83132 
   38370    115.15293   -1035.5359    10126.041    19309.983    3.6030545     26.82835 
   38380    115.76954   -1034.4364    10163.042     19303.96    3.6041786     26.82556 
   38390    116.81337   -1033.8763    10191.508    19298.457    3.6052064    26.823011 
   38400    118.24506   -1033.9518    10210.622    19293.573    3.6061189    26.820748 
   38410    119.98537   -1034.2836    10223.142     19289.38    3.6069029    26.818805 
   38420    121.92237   -1034.7175    10230.431    19285.924    3.6075492    26.817203 
   38430    123.92319   -1035.6547    10230.085    19283.234    3.6080526    26.815956 
   38440     125.8499   -1036.6083     10226.01    19281.314    3.6084118    26.815066 
   38450     127.5718   -1037.2853    10220.817    19280.156    3.6086285    26.814529 
   38460     128.9791   -1038.3573    10210.414    19279.744    3.6087057    26.814338 
   38470     129.9879   -1039.0304    10200.935     19280.05    3.6086483    26.814481 
   38480    130.54888   -1039.6423     10190.54    19281.049    3.6084615    26.814943 
   38490     130.6416   -1039.8899     10181.68    19282.709    3.6081508    26.815713 
   38500    130.27895   -1039.8481    10173.903    19285.005    3.6077211    26.816777 
   38510      129.513   -1039.6626    10165.991    19287.916    3.6071766    26.818127 
   38520    128.43149   -1039.3233    10157.565    19291.417     3.606522    26.819749 
   38530    127.14417   -1039.0396    10146.532    19295.483     3.605762    26.821633 
   38540    125.77335   -1038.9794    10131.091    19300.081     3.604903    26.823764 
   38550    124.43621   -1038.9025    10112.463    19305.164    3.6039539    26.826118 
   38560    123.22669   -1039.1441    10088.171    19310.669    3.6029264    26.828668 
   38570    122.20237    -1039.741    10058.214    19316.519    3.6018354    26.831376 
   38580    121.38316    -1040.484    10024.702    19322.613    3.6006993    26.834198 
   38590    120.75647   -1041.6664    9986.5666    19328.839    3.5995396     26.83708 
   38600    120.28008   -1042.8138    9948.2968    19335.067    3.5983801    26.839962 
   38610    119.89709   -1043.8616    9911.6158    19341.167    3.5972451    26.842784 
   38620    119.54135   -1044.7677    9878.0647    19347.014    3.5961581    26.845489 
   38630       119.15   -1045.6264    9848.1303    19352.487     3.595141     26.84802 
   38640    118.66895   -1046.1811    9824.5191    19357.483    3.5942132     26.85033 
   38650    118.06637   -1046.2354    9809.1813    19361.916    3.5933902     26.85238 
   38660    117.34391     -1046.06    9800.3749     19365.73    3.5926826    26.854143 
   38670    116.54597   -1045.3983     9799.537    19368.889    3.5920967    26.855603 
   38680    115.75735   -1044.3733    9804.9932    19371.385    3.5916338    26.856756 
   38690    115.08538   -1043.4854    9812.1064     19373.23    3.5912917    26.857609 
   38700    114.64031   -1042.7979    9819.2029    19374.443    3.5910669    26.858169 
   38710     114.5109   -1042.1978    9826.0285    19375.044    3.5909554    26.858447 
   38720    114.74287   -1042.0772    9829.2088    19375.053    3.5909539    26.858451 
   38730    115.33317   -1042.4409    9828.5598    19374.473    3.5910612    26.858183 
   38740    116.23561   -1042.9404    9826.7802    19373.302    3.5912783    26.857642 
   38750     117.3773   -1043.6854    9823.6734    19371.528    3.5916073    26.856822 
   38760    118.66978   -1044.5471    9820.8164    19369.135    3.5920509    26.855716 
   38770    120.02587   -1045.5265    9818.9073    19366.111    3.5926119    26.854319 
   38780    121.36271   -1046.3387    9820.5815    19362.445    3.5932921    26.852624 
   38790    122.60379   -1046.7342    9828.1284    19358.139    3.5940913    26.850633 
   38800    123.68241   -1046.9198    9840.5263    19353.215    3.5950057    26.848357 
   38810    124.54292   -1046.7969    9858.7256    19347.712    3.5960283    26.845812 
   38820    125.14143   -1046.6002    9881.1748    19341.688    3.5971482    26.843025 
   38830    125.45071   -1045.9213    9910.6191     19335.22    3.5983517    26.840032 
   38840    125.45921   -1045.0582    9944.6603    19328.402    3.5996209    26.836878 
   38850    125.17605   -1043.9176    9983.3863    19321.351    3.6009345    26.833614 
   38860    124.62956   -1042.3818    10026.811    19314.198    3.6022682    26.830302 
   38870    123.86822   -1040.6786    10072.311    19307.089    3.6035946     26.82701 
   38880    122.95537    -1038.859    10118.333     19300.18    3.6048845    26.823809 
   38890    121.95935   -1037.1021    10162.356     19293.63    3.6061084    26.820775 
   38900    120.95119   -1035.4172    10203.075     19287.59    3.6072376    26.817975 
   38910     119.9915   -1034.0189     10237.84    19282.202    3.6082456    26.815478 
   38920     119.1328   -1033.0354    10264.787    19277.589    3.6091091    26.813339 
   38930    118.41425   -1032.4515    10283.303    19273.847    3.6098097    26.811604 
   38940    117.85574   -1032.0763    10294.298    19271.047    3.6103343    26.810306 
   38950    117.45194    -1032.198    10295.692     19269.23    3.6106746    26.809463 
   38960    117.17109   -1032.9176    10287.115    19268.409    3.6108284    26.809083 
   38970    116.95517   -1033.5102    10274.315    19268.564    3.6107994    26.809155 
   38980    116.73351   -1034.5332    10254.278    19269.656    3.6105948    26.809661 
   38990    116.44355   -1035.6192    10230.459    19271.626    3.6102258    26.810574 
   39000    116.04659   -1036.6537    10204.382    19274.399    3.6097063    26.811861 
   39010    115.53595   -1037.5645    10177.026    19277.896    3.6090516    26.813482 
   39020    114.93206   -1038.2899    10149.072    19282.027    3.6082783    26.815397 
   39030    114.27117   -1039.2769    10117.529    19286.702    3.6074037    26.817564 
   39040    113.59466    -1040.408    10083.349    19291.817    3.6064472    26.819934 
   39050    112.94181   -1041.3858    10048.826    19297.262    3.6054296    26.822458 
   39060    112.34533   -1042.4887    10012.345    19302.921    3.6043726    26.825079 
   39070    111.83261   -1043.5918    9975.2256    19308.671    3.6032992    26.827742 
   39080    111.42039   -1044.7022    9937.9478    19314.386     3.602233    26.830389 
   39090    111.11927    -1046.015    9899.7735    19319.937    3.6011981    26.832959 
   39100    110.93535   -1047.3034    9862.9926    19325.192    3.6002189    26.835392 
   39110    110.86734    -1048.528    9828.6321    19330.022    3.5993193    26.837627 
   39120    110.90768   -1049.5925    9798.1206    19334.306    3.5985216     26.83961 
   39130    111.04948   -1050.6723    9771.0027    19337.936    3.5978463    26.841289 
   39140    111.28246   -1051.5671    9749.4229    19340.811    3.5973114    26.842619 
   39150    111.59609   -1052.1969    9734.6678    19342.852    3.5969319    26.843563 
   39160    111.98109   -1052.5056    9727.7992    19344.001    3.5967181    26.844095 
   39170    112.42983   -1052.3657    9730.2568     19344.23    3.5966756    26.844201 
   39180    112.94132    -1051.961    9741.0987    19343.537    3.5968045     26.84388 
   39190    113.52036    -1051.281    9760.3994    19341.952    3.5970992    26.843147 
   39200    114.17342    -1050.132    9789.0767    19339.536    3.5975485     26.84203 
   39210    114.89901   -1048.6559    9825.2262     19336.38    3.5981357     26.84057 
   39220    115.68049    -1047.029    9866.2745    19332.602    3.5988389    26.838821 
   39230    116.48485   -1045.2933    9910.3173    19328.339    3.5996327    26.836848 
   39240     117.2794   -1043.6129    9954.6192    19323.736      3.60049    26.834718 
   39250    118.04049    -1042.126    9996.9003    19318.944    3.6013831      26.8325 
   39260    118.75248   -1040.8785    10035.947    19314.106    3.6022854    26.830259 
   39270     119.4029   -1039.6525    10072.814    19309.355    3.6031717    26.828059 
   39280    119.97318   -1038.4151    10107.555    19304.819    3.6040183    26.825958 
   39290    120.44775   -1037.3244    10139.026    19300.618    3.6048027    26.824012 
   39300    120.81737    -1036.351    10167.337    19296.862    3.6055044    26.822272 
   39310    121.09177   -1035.3987    10192.912    19293.651    3.6061044    26.820784 
   39320    121.29666   -1034.8415    10212.676    19291.075    3.6065859    26.819591 
   39330    121.47619   -1034.2242    10229.193    19289.209    3.6069348    26.818726 
   39340    121.68242   -1033.8673    10239.549    19288.113    3.6071398    26.818218 
   39350    121.96148   -1033.8391    10242.668    19287.828    3.6071931    26.818086 
   39360    122.34101   -1034.1087    10238.384    19288.372    3.6070914    26.818338 
   39370    122.82382   -1034.7325    10226.238    19289.736    3.6068363     26.81897 
   39380    123.38554   -1035.7525     10206.24    19291.886    3.6064344    26.819966 
   39390    123.97581   -1036.9514    10180.543    19294.761     3.605897    26.821298 
   39400     124.5272   -1038.3571    10149.827    19298.279    3.6052397    26.822928 
   39410    124.96814   -1039.8429    10115.971    19302.342    3.6044808    26.824811 
   39420     125.2355   -1041.2919     10080.78     19306.84     3.603641    26.826894 
   39430    125.28645   -1042.5398    10046.278    19311.658    3.6027419    26.829126 
   39440    125.10178   -1043.6971    10012.376     19316.68    3.6018053    26.831451 
   39450    124.68534   -1044.5576    9980.9889    19321.792    3.6008523    26.833818 
   39460    124.06265   -1045.4054    9950.4585    19326.887    3.5999032    26.836176 
   39470     123.2751   -1046.1206     9921.856     19331.86    3.5989771    26.838478 
   39480    122.37095   -1046.6079    9896.0455    19336.612    3.5980926    26.840677 
   39490    121.40169   -1047.1617    9871.1459    19341.051    3.5972668     26.84273 
   39500    120.42703   -1047.5912    9848.6282    19345.089     3.596516    26.844598 
   39510    119.50919    -1048.151    9826.8143    19348.644    3.5958552    26.846242 
   39520    118.70861   -1048.6791    9806.9117    19351.637    3.5952989    26.847627 
   39530    118.06941   -1049.3178    9788.0716    19353.996    3.5948608    26.848718 
   39540    117.61006   -1049.9857    9771.1472    19355.648    3.5945539    26.849482 
   39550    117.31731   -1050.7385    9756.1835     19356.53    3.5943902    26.849889 
   39560    117.16167   -1051.4948    9744.2523    19356.583    3.5943803    26.849914 
   39570    117.11465   -1052.0848     9736.981     19355.76    3.5945332    26.849533 
   39580    117.15824   -1052.5818    9734.1184    19354.027    3.5948549    26.848732 
   39590    117.28606   -1052.9831    9735.7639    19351.368    3.5953489    26.847503 
   39600    117.49207    -1053.291    9741.9175    19347.781    3.5960155    26.845843 
   39610    117.75663   -1053.4654    9752.9482    19343.279    3.5968525    26.843761 
   39620    118.03627   -1053.3113    9770.4446    19337.894    3.5978541     26.84127 
   39630     118.2691   -1052.9762    9793.6974    19331.679    3.5990108    26.838394 
   39640    118.39223   -1052.2135    9824.6669    19324.709    3.6003088    26.835168 
   39650    118.36332   -1051.2982    9861.4147    19317.084      3.60173    26.831638 
   39660    118.17727   -1050.0184    9905.0129    19308.924     3.603252     26.82786 
   39670    117.86296   -1048.2847    9955.2497    19300.376    3.6048478      26.8239 
   39680    117.47669   -1046.3425    10009.255    19291.609    3.6064862    26.819838 
   39690    117.08441   -1044.4262    10064.062    19282.803    3.6081332    26.815756 
   39700    116.75334   -1042.4764    10118.752    19274.146    3.6097538    26.811743 
   39710    116.54159   -1040.6639    10170.872    19265.824     3.611313    26.807884 
   39720    116.49965   -1038.9495    10219.586    19258.018    3.6127767    26.804263 
   39730    116.66587   -1037.3947    10263.551    19250.899    3.6141128    26.800959 
   39740    117.06375   -1036.2779    10300.182    19244.619    3.6152922    26.798044 
   39750    117.70102   -1035.6489    10328.846    19239.308    3.6162902    26.795579 
   39760    118.56266   -1035.0225    10353.002    19235.073    3.6170864    26.793613 
   39770    119.61818    -1034.574    10371.766    19232.003    3.6176637    26.792188 
   39780    120.82004   -1034.2147    10386.207    19230.174    3.6180079    26.791338 
   39790    122.11036    -1033.918    10396.881    19229.642    3.6181078    26.791091 
   39800    123.41488   -1033.5402    10404.839    19230.458    3.6179544     26.79147 
   39810    124.65009   -1033.0162    10410.116     19232.66    3.6175401    26.792493 
   39820    125.73318   -1032.7232    10409.183    19236.279    3.6168596    26.794173 
   39830    126.61282   -1032.3724    10402.946    19241.324    3.6159112    26.796515 
   39840    127.27885   -1032.4967    10386.624    19247.787    3.6146971    26.799515 
   39850    127.75345   -1032.8175     10361.51    19255.628    3.6132252    26.803154 
   39860    128.06653   -1033.6419    10325.402    19264.775    3.6115096    26.807397 
   39870    128.23115   -1034.7414    10280.506    19275.118    3.6095716    26.812194 
   39880    128.23331   -1036.1449    10227.756    19286.518    3.6074382    26.817478 
   39890    128.04364   -1037.6291    10170.183    19298.805    3.6051414    26.823172 
   39900    127.62773   -1038.9867    10110.787    19311.793    3.6027168    26.829188 
   39910     126.9671   -1040.1108    10051.788    19325.284    3.6002016    26.835435 
   39920    126.05907   -1041.1411    9993.4665    19339.083    3.5976329     26.84182 
   39930    124.92447   -1041.8383    9938.5193     19352.99    3.5950477    26.848252 
   39940    123.60111   -1042.4579     9885.935    19366.816    3.5924811    26.854645 
   39950    122.14468   -1042.8194    9837.5114    19380.379    3.5899669    26.860912 
   39960     120.6255   -1042.9901    9793.1029    19393.507    3.5875368    26.866976 
   39970    119.12322   -1043.1309    9751.7431    19406.041    3.5852197    26.872763 
   39980    117.71883   -1043.0678    9714.6768    19417.832    3.5830427    26.878204 
   39990     116.4855   -1043.0641     9680.072     19428.74     3.581031    26.883236 
   40000    115.48549   -1043.1038    9648.0961    19438.637    3.5792078      26.8878 
Loop time of 4.82926 on 1 procs for 20000 steps with 500 atoms

Performance: 357.819 ns/day, 0.067 hours/ns, 4141.421 timesteps/s
97.6% CPU use with 1 MPI tasks x no OpenMP threads

MPI task timing breakdown:
Section |  min time  |  avg time  |  max time  |%varavg| %total
---------------------------------------------------------------
Pair    | 4.0711     | 4.0711     | 4.0711     |   0.0 | 84.30
Neigh   | 0.11555    | 0.11555    | 0.11555    |   0.0 |  2.39
Comm    | 0.14914    | 0.14914    | 0.14914    |   0.0 |  3.09
Output  | 0.025429   | 0.025429   | 0.025429   |   0.0 |  0.53
Modify  | 0.41265    | 0.41265    | 0.41265    |   0.0 |  8.54
Other   |            | 0.05543    |            |       |  1.15

Nlocal:    500 ave 500 max 500 min
Histogram: 1 0 0 0 0 0 0 0 0 0
Nghost:    1447 ave 1447 max 1447 min
Histogram: 1 0 0 0 0 0 0 0 0 0
Neighs:    13477 ave 13477 max 13477 min
Histogram: 1 0 0 0 0 0 0 0 0 0

Total # of neighbors = 13477
Ave neighs/atom = 26.954
Neighbor list builds = 169
Dangerous builds = 0
Total wall time: 0:00:09
