LAMMPS (7 Aug 2019)
Reading data file ...
  orthogonal box = (-1.4719 -1.4719 -1.4719) to (26.4719 26.4719 26.4719)
  1 by 1 by 1 MPI processor grid
  reading atoms ...
  500 atoms
  reading velocities ...
  500 velocities
  read_data CPU = 0.00233817 secs
Neighbor list info ...
  update every 1 steps, delay 10 steps, check yes
  max neighbors/atom: 2000, page size: 100000
  master list distance cutoff = 8
  ghost atom cutoff = 8
  binsize = 4, bins = 7 7 7
  1 neighbor lists, perpetual/occasional/extra = 1 0 0
  (1) pair lj/cut, perpetual
      attributes: half, newton on
      pair build: half/bin/atomonly/newton
      stencil: half/bin/3d/newton
      bin: standard
Setting up Verlet run ...
  Unit style    : real
  Current step  : 0
  Time step     : 1
Per MPI rank memory allocation (min/avg/max) = 3.998 | 3.998 | 3.998 Mbytes
Step Temp PotEng Press Volume Density Lx 
       0   0.94924373   -1315.7856    26.487323    21820.062    3.1885758    27.943791 
      10   0.94791377    -1315.783    25.867608    21820.493    3.1885127    27.943975 
      20   0.94688452   -1315.7797     23.98169    21821.767    3.1883266    27.944519 
      30   0.94620814   -1315.7756     20.92473    21823.822    3.1880263    27.945396 
      40   0.94594896   -1315.7706    16.850622     21826.56    3.1876265    27.946565 
      50    0.9461749   -1315.7645    11.963796    21829.847    3.1871465    27.947967 
      60   0.94694187   -1315.7573    6.5084335    21833.524    3.1866097    27.949537 
      70    0.9482692   -1315.7487   0.75575591    21837.415    3.1860419    27.951197 
      80   0.95010663   -1315.7389   -5.0098842    21841.331    3.1854707    27.952868 
      90   0.95229954   -1315.7279   -10.505314    21845.085    3.1849233    27.954469 
     100   0.95456811   -1315.7157   -15.462474    21848.497    3.1844259    27.955924 
     110   0.95652117   -1315.7026   -19.641245    21851.404    3.1840022    27.957164 
     120   0.95771784   -1315.6886   -22.840563    21853.671     3.183672    27.958131 
     130   0.95776486   -1315.6739   -24.907421    21855.192    3.1834504     27.95878 
     140   0.95641175   -1315.6588   -25.743528      21855.9    3.1833473    27.959081 
     150   0.95360111   -1315.6431   -25.309566    21855.767    3.1833667    27.959025 
     160   0.94945612   -1315.6271   -23.626953    21854.808    3.1835064    27.958616 
     170   0.94422199   -1315.6106   -20.777024    21853.077    3.1837586    27.957877 
     180   0.93819697   -1315.5936   -16.897558    21850.668    3.1841096     27.95685 
     190   0.93168059    -1315.576   -12.176659    21847.707     3.184541    27.955588 
     200   0.92494603   -1315.5576    -6.844167    21844.351    3.1850304    27.954156 
     210   0.91822927   -1315.5385   -1.1609367    21840.771    3.1855524    27.952629 
     220   0.91172478   -1315.5186    4.5935937    21837.155    3.1860799    27.951086 
     230   0.90558145    -1315.498    10.134981    21833.689    3.1865856    27.949607 
     240   0.89989679   -1315.4767    15.187877    21830.555    3.1870432     27.94827 
     250   0.89471036   -1315.4549     19.49993    21827.916    3.1874285    27.947143 
     260   0.89000041   -1315.4329    22.854765    21825.913     3.187721    27.946289 
     270   0.88568848   -1315.4106    25.083297    21824.655    3.1879047    27.945752 
     280   0.88165537   -1315.3883     26.07271    21824.214    3.1879691    27.945563 
     290   0.87776751   -1315.3659    25.772549    21824.622    3.1879094    27.945738 
     300   0.87390683   -1315.3436    24.197504    21825.871    3.1877271    27.946271 
     310   0.86999425   -1315.3212    21.426689    21827.908    3.1874297     27.94714 
     320   0.86599946   -1315.2986    17.599423    21830.643    3.1870303    27.948307 
     330    0.8619359   -1315.2757    12.907805    21833.952    3.1865472    27.949719 
     340   0.85784595   -1315.2524    7.5865507    21837.683    3.1860028    27.951311 
     350   0.85378318   -1315.2286    1.9007438    21841.662    3.1854224    27.953009 
     360   0.84979708   -1315.2042   -3.8677588    21845.704     3.184833    27.954733 
     370   0.84592306   -1315.1793   -9.4344954    21849.621    3.1842622    27.956404 
     380   0.84217848   -1315.1538   -14.526399     21853.23    3.1837363    27.957943 
     390   0.83856362   -1315.1281   -18.894946    21856.365    3.1832796     27.95928 
     400   0.83506601   -1315.1021   -22.327883    21858.883    3.1829128    27.960353 
     410   0.83166605    -1315.076   -24.659041    21860.672    3.1826523    27.961116 
     420    0.8283422   -1315.0499   -25.775912    21861.656    3.1825092    27.961536 
     430   0.82507453   -1315.0238   -25.624705    21861.797    3.1824886    27.961596 
     440   0.82184645   -1314.9978   -24.212745    21861.101      3.18259    27.961299 
     450   0.81864483   -1314.9717   -21.608143    21859.614    3.1828065    27.960665 
     460   0.81545936   -1314.9455   -17.936732    21857.421    3.1831258     27.95973 
     470   0.81228157    -1314.919   -13.376373    21854.642    3.1835305    27.958545 
     480   0.80910429   -1314.8921   -8.1488102    21851.428    3.1839988    27.957174 
     490   0.80592138   -1314.8646    -2.509344    21847.948    3.1845059     27.95569 
     500   0.80272785   -1314.8365    3.2652707    21844.388     3.185025    27.954171 
     510   0.79952019   -1314.8079    8.8902139    21840.934    3.1855286    27.952698 
     520   0.79629668   -1314.7787    14.086662    21837.772    3.1859899    27.951349 
     530   0.79305762   -1314.7491    18.595823     21835.07    3.1863841    27.950196 
     540   0.78980542   -1314.7192    22.192207    21832.974    3.1866899    27.949302 
     550   0.78654455   -1314.6891    24.695366    21831.603    3.1868901    27.948717 
     560   0.78328125   -1314.6591    25.979412    21831.037    3.1869728    27.948475 
     570   0.78002336   -1314.6292    25.979721    21831.317    3.1869319    27.948595 
     580   0.77677986   -1314.5993    24.696383    21832.445    3.1867673    27.949076 
     590   0.77356054   -1314.5694    22.194195    21834.377    3.1864852    27.949901 
     600   0.77037563   -1314.5395    18.599176    21837.034    3.1860976    27.951034 
     610   0.76723536   -1314.5094    14.091844    21840.297    3.1856215    27.952427 
     620   0.76414963    -1314.479    8.8976813    21844.021    3.1850784    27.954015 
     630   0.76112773   -1314.4482    3.2753835    21848.036    3.1844932    27.955728 
     640   0.75817806    -1314.417   -2.4964115    21852.158    3.1838924    27.957486 
     650   0.75530795   -1314.3853   -8.1331537    21856.199    3.1833037    27.959209 
     660   0.75252363   -1314.3532   -13.358427    21859.976    3.1827538    27.960819 
     670   0.74983019   -1314.3209   -17.917315    21863.316    3.1822675    27.962243 
     680   0.74723167   -1314.2884    -21.58848    21866.071    3.1818666    27.963418 
     690    0.7447313    -1314.256   -24.194452     21868.12    3.1815684    27.964291 
     700   0.74233177   -1314.2238   -25.609747    21869.378    3.1813854    27.964828 
     710   0.74003552   -1314.1919   -25.766531    21869.799    3.1813242    27.965007 
     720   0.73784525   -1314.1602   -24.657647    21869.377    3.1813855    27.964827 
     730   0.73576431   -1314.1287   -22.336926    21868.149    3.1815642    27.964304 
     740    0.7337972   -1314.0974    -18.91677    21866.191    3.1818491    27.963469 
     750   0.73195006   -1314.0661   -14.563065    21863.615     3.182224    27.962371 
     760   0.73023111   -1314.0347   -9.4876117    21860.563    3.1826682     27.96107 
     770   0.72865109   -1314.0032    -3.938309    21857.202    3.1831576    27.959637 
     780   0.72722356   -1313.9714    1.8125451    21853.714    3.1836657    27.958149 
     790   0.72596512   -1313.9394    7.4813526    21850.286    3.1841652    27.956687 
     800   0.72489557   -1313.9072     12.78714    21847.103    3.1846291     27.95533 
     810   0.72403784   -1313.8751     17.46563    21844.338    3.1850322     27.95415 
     820   0.72341782   -1313.8431    21.282727    21842.144    3.1853522    27.953214 
     830    0.7230641   -1313.8114    24.046654    21840.644    3.1855708    27.952575 
     840   0.72300742   -1313.7803    25.618037     21839.93    3.1856751     27.95227 
     850   0.72328022   -1313.7498    25.917308    21840.051    3.1856574    27.952321 
     860   0.72391583   -1313.7199    24.928958    21841.017    3.1855164    27.952734 
     870   0.72494783   -1313.6907     22.70236    21842.797    3.1852569    27.953493 
     880   0.72640921   -1313.6622    19.349124    21845.318    3.1848893    27.954568 
     890   0.72835033    -1313.585    15.335811    21848.473    3.1844294    27.955914 
     900   0.73080136   -1313.5575     10.26307    21852.128    3.1838968    27.957473 
     910   0.73376477   -1313.5302    4.6845454    21856.119    3.1833154    27.959175 
     920   0.73727922   -1313.4787  -0.97507423    21860.265    3.1827117    27.960942 
     930   0.74135135   -1313.4276   -6.5864519     21864.38    3.1821126    27.962697 
     940   0.74598918   -1313.4013    -12.02382     21868.28    3.1815451    27.964359 
     950   0.75119765   -1313.3755    -16.87141    21871.787     3.181035    27.965854 
     960   0.75698091   -1313.3503   -20.893904    21874.743    3.1806052    27.967114 
     970   0.76333801   -1313.3259   -23.896883    21877.015    3.1802749    27.968082 
     980   0.77026289   -1313.3024   -25.735743    21878.505    3.1800583    27.968717 
     990    0.7777444   -1313.2799   -26.322239    21879.152    3.1799642    27.968993 
    1000   0.78576652   -1313.2583   -25.628431    21878.938    3.1799953    27.968902 
    1010   0.79431574   -1313.2132   -23.537584    21877.886    3.1801482    27.968453 
    1020   0.80336743   -1313.1935   -20.451046    21876.063    3.1804133    27.967676 
    1030   0.81288331   -1313.1746    -16.36792    21873.571    3.1807756    27.966615 
    1040   0.82283097   -1313.1562   -11.486068    21870.544    3.1812157    27.965325 
    1050   0.83317519   -1313.1382   -6.0429712    21867.143    3.1817106    27.963875 
    1060   0.84387854   -1313.1206  -0.30461147    21863.545    3.1822341    27.962341 
    1070   0.85490746   -1313.1278    5.2970309    21859.938    3.1827593    27.960803 
    1080   0.86622322   -1313.1107    10.786036    21856.505    3.1832591    27.959339 
    1090   0.87778111    -1313.094    15.739731    21853.426    3.1837077    27.958026 
    1100   0.88954126   -1313.1024    19.760031    21850.862    3.1840813    27.956933 
    1110   0.90146882   -1313.0868    22.945469    21848.945    3.1843606    27.956115 
    1120   0.91351904   -1313.0475    25.138681    21847.778    3.1845308    27.955618 
    1130   0.92565572   -1313.0581    25.777756     21847.43    3.1845814    27.955469 
    1140   0.93787316   -1313.0206    25.427027    21847.928    3.1845089    27.955682 
    1150   0.95009525   -1313.0086    23.656281    21849.256    3.1843153    27.956248 
    1160   0.96228263   -1312.9975    20.705546    21851.356    3.1840092    27.957144 
    1170   0.97439698   -1312.9871    16.722458    21854.133    3.1836047    27.958328 
    1180   0.98639917   -1312.9775    11.905767    21857.456    3.1831207    27.959745 
    1190   0.99825531   -1312.9194    6.7964773    21861.169    3.1825801    27.961328 
    1200    1.0099349   -1312.8865    1.1970745    21865.103    3.1820075    27.963005 
    1210    1.0213834   -1312.8542   -4.4700148    21869.077    3.1814292    27.964699 
    1220    1.0325238   -1312.8472   -10.076224    21872.906    3.1808723    27.966331 
    1230    1.0432916   -1312.8411   -15.197416    21876.405    3.1803635    27.967822 
    1240    1.0536224   -1312.8359   -19.585958    21879.407    3.1799271    27.969102 
    1250    1.0634424   -1312.8075   -22.879642    21881.769     3.179584    27.970108 
    1260    1.0726663   -1312.7805   -25.069053    21883.379    3.1793499    27.970794 
    1270    1.0811791   -1312.7797     -26.2027    21884.168    3.1792353     27.97113 
    1280    1.0888715   -1312.7806   -26.077528    21884.099    3.1792453    27.971101 
    1290     1.095651   -1312.7833   -24.703037    21883.177    3.1793792    27.970708 
    1300    1.1013861   -1312.7878   -22.145776    21881.448    3.1796305    27.969971 
    1310    1.1059585   -1312.8185   -18.680094    21878.994    3.1799872    27.968925 
    1320    1.1092725   -1312.8263   -14.174656     21875.93    3.1804325     27.96762 
    1330    1.1112605   -1312.8602   -9.1489046    21872.404    3.1809453    27.966117 
    1340    1.1119102   -1312.8956   -3.6989048    21868.581    3.1815014    27.964488 
    1350    1.1112761   -1312.9324    1.9109373    21864.637    3.1820753    27.962806 
    1360    1.1094407   -1312.9952    7.2536501    21860.755    3.1826403    27.961152 
    1370    1.1066016    -1313.035    12.366111    21857.112    3.1831707    27.959598 
    1380    1.1029725   -1313.0518    16.995228    21853.874    3.1836423    27.958218 
    1390    1.0988547   -1313.0949    20.611969    21851.191    3.1840334    27.957073 
    1400    1.0945489   -1313.1152    23.335786    21849.181    3.1843263    27.956216 
    1410    1.0903527   -1313.1373    24.880076    21847.933    3.1845082    27.955684 
    1420    1.0865259   -1313.1369     25.31949    21847.498    3.1845716    27.955498 
    1430    1.0832701   -1313.1628    24.332847    21847.888    3.1845146    27.955665 
    1440    1.0807245   -1313.1905    22.120929    21849.073    3.1843419     27.95617 
    1450    1.0789706   -1313.2199    18.796217     21850.98     3.184064    27.956983 
    1460    1.0780379   -1313.2506    14.526671    21853.501    3.1836967    27.958059 
    1470    1.0779135   -1313.2826    9.5268887    21856.497    3.1832604    27.959336 
    1480    1.0785523   -1313.3156    4.0469322    21859.804    3.1827788    27.960746 
    1490    1.0798859   -1313.3495   -1.6405036    21863.243    3.1822781    27.962212 
    1500    1.0818376   -1313.4087   -7.4029749    21866.628    3.1817856    27.963655 
    1510    1.0843119    -1313.444   -12.656567     21869.77    3.1813284    27.964995 
    1520    1.0872091   -1313.4801   -17.294701    21872.499    3.1809314    27.966158 
    1530    1.0904314    -1313.517    -21.09086    21874.662    3.1806169     27.96708 
    1540    1.0938988   -1313.5302   -23.710676    21876.136    3.1804026    27.967708 
    1550    1.0975127   -1313.5687   -25.326911    21876.834    3.1803011    27.968005 
    1560    1.1011827   -1313.6081   -25.709861    21876.703    3.1803201    27.967949 
    1570    1.1048583   -1313.6729   -24.988663     21875.73    3.1804617    27.967534 
    1580    1.1084673   -1313.7383    -23.04806    21873.938    3.1807222    27.966771 
    1590     1.111959   -1313.7797    -19.83132    21871.395    3.1810921    27.965687 
    1600    1.1152696   -1313.8213     -15.6424    21868.203    3.1815563    27.964327 
    1610    1.1183591   -1313.8629   -10.683492    21864.502    3.1820949    27.962749 
    1620    1.1211954   -1313.9044   -5.1951903    21860.452    3.1826844    27.961022 
    1630    1.1237532   -1313.9456   0.55480448    21856.235    3.1832985    27.959224 
    1640     1.126013   -1313.9864    6.2844937    21852.038      3.18391    27.957434 
    1650    1.1279611   -1314.0268    11.711363    21848.047    3.1844915    27.955732 
    1660    1.1295883   -1314.0668    16.566469    21844.441    3.1850173    27.954194 
    1670    1.1308902   -1314.1065    20.608114    21841.376    3.1854642    27.952887 
    1680     1.131866   -1314.1461    23.634343    21838.985     3.185813    27.951867 
    1690    1.1325192   -1314.1856     25.49354    21837.365    3.1860492    27.951176 
    1700    1.1328566    -1314.225    26.092478    21836.577    3.1861642    27.950839 
    1710    1.1328884   -1314.2645      25.4013    21836.641    3.1861549    27.950866 
    1720    1.1326281   -1314.3038    23.455134    21837.532    3.1860248    27.951247 
    1730     1.132092   -1314.3431    20.352203    21839.189    3.1857831    27.951954 
    1740     1.131299    -1314.382     16.24859     21841.51    3.1854446    27.952944 
    1750      1.13027   -1314.4205    11.349964    21844.361    3.1850289     27.95416 
    1760    1.1290277   -1314.4584    5.9008123    21847.582    3.1845592    27.955534 
    1770     1.127596   -1314.4957   0.17181645    21850.996    3.1840617     27.95699 
    1780    1.1259992   -1314.5323   -5.5538793    21854.416    3.1835634    27.958449 
    1790    1.1242617   -1314.5684   -10.994763    21857.655    3.1830917     27.95983 
    1800    1.1224073   -1314.6039   -15.884689    21860.534    3.1826724    27.961057 
    1810    1.1204582    -1314.639   -19.985595    21862.895    3.1823288    27.962064 
    1820    1.1184351   -1314.6738   -23.098666    21864.602    3.1820803    27.962792 
    1830    1.1163678   -1314.7331   -25.224019    21865.554    3.1819418    27.963197 
    1840    1.1142766   -1314.7679   -25.958628    21865.681    3.1819232    27.963252 
    1850    1.1121596   -1314.8027   -25.417191    21864.961    3.1820281    27.962945 
    1860    1.1100247   -1314.8375   -23.625808     21863.41    3.1822539    27.962283 
    1870    1.1078762   -1314.8722   -20.670837    21861.087     3.182592    27.961293 
    1880    1.1057145   -1314.9066   -16.695009     21858.09    3.1830284    27.960015 
    1890    1.1035364   -1314.9407   -11.890953    21854.549    3.1835441    27.958505 
    1900    1.1013352   -1314.9743   -6.4923314    21850.621    3.1841164     27.95683 
    1910    1.0991008   -1315.0072  -0.76290719    21846.482    3.1847196    27.955065 
    1920      1.09682   -1315.0394    5.0160383    21842.321    3.1853263     27.95329 
    1930    1.0944773   -1315.0708    10.559396    21838.325    3.1859091    27.951585 
    1940    1.0920551   -1315.1016    15.592395    21834.676    3.1864416    27.950028 
    1950    1.0895346   -1315.1318    19.864515    21831.536    3.1868999    27.948688 
    1960     1.086896   -1315.1614    23.162402    21829.045    3.1872636    27.947625 
    1970    1.0841196   -1315.1907     25.32103    21827.309     3.187517    27.946885 
    1980    1.0811864   -1315.2197    26.232434      21826.4    3.1876499    27.946496 
    1990    1.0780783   -1315.2483    25.851474    21826.345    3.1876579    27.946473 
    2000    1.0747792   -1315.2765    24.198243    21827.132    3.1875429    27.946809 
    2010    1.0712748   -1315.3042    21.356982    21828.708    3.1873128    27.947482 
    2020    1.0675539   -1315.3312    17.471556     21830.98    3.1869811    27.948451 
    2030    1.0636078   -1315.3573    12.737794    21833.821    3.1865664    27.949663 
    2040    1.0594308   -1315.3824    7.3931765    21837.078    3.1860912    27.951053 
    2050    1.0550204   -1315.4064    1.7045067    21840.575    3.1855809    27.952545 
    2060     1.050377    -1315.429   -4.0457127    21844.129    3.1850627    27.954061 
    2070    1.0455039   -1315.4504   -9.5734311     21847.55    3.1845639     27.95552 
    2080    1.0404071   -1315.4705   -14.606997    21850.659    3.1841108    27.956846 
    2090    1.0350951   -1315.4895   -18.900224    21853.291    3.1837273    27.957969 
    2100    1.0295786   -1315.5074   -22.244006    21855.306    3.1834338    27.958828 
    2110    1.0238706   -1315.5244   -24.475995    21856.594    3.1832462    27.959377 
    2120    1.0179861   -1315.5405   -25.488017    21857.083    3.1831751    27.959586 
    2130    1.0119421   -1315.5557   -25.230945    21856.739    3.1832251    27.959439 
    2140    1.0057577   -1315.5701   -23.716902    21855.571    3.1833952    27.958941 
    2150   0.99945446   -1315.5834   -21.018711     21853.63     3.183678    27.958113 
    2160   0.99305634   -1315.5956   -17.266623    21851.003    3.1840608    27.956993 
    2170    0.9865904   -1315.6065   -12.642406    21847.813    3.1845256    27.955633 
    2180   0.98008718    -1315.616   -7.3710057    21844.212    3.1850505    27.954097 
    2190   0.97358128    -1315.624   -1.7100393    21840.373    3.1856105    27.952459 
    2200   0.96711192   -1315.6303    4.0624468    21836.479    3.1861785    27.950798 
    2210   0.96072355   -1315.6351     9.661468     21832.72     3.186727    27.949194 
    2220    0.9544664   -1315.6384    14.809208    21829.278    3.1872296    27.947725 
    2230   0.94839687   -1315.6403    19.249042     21826.32    3.1876616    27.946462 
    2240   0.94257781   -1315.6409     22.75873     21823.99    3.1880019    27.945468 
    2250   0.93707844   -1315.6404    25.162009    21822.402    3.1882339     27.94479 
    2260   0.93197395    -1315.639    26.337917    21821.634    3.1883461    27.944462 
    2270   0.92734444   -1315.6367    26.227237    21821.724    3.1883329    27.944501 
    2280   0.92327315   -1315.6336    24.835666    21822.668    3.1881949    27.944904 
    2290   0.91984366   -1315.6295    22.233498    21824.421    3.1879388    27.945652 
    2300   0.91713582   -1315.6244     18.55184    21826.899     3.187577    27.946709 
    2310   0.91522026   -1315.6183    13.975604     21829.98     3.187127    27.948024 
    2320   0.91415148    -1315.611    8.7337299    21833.517    3.1866107    27.949534 
    2330   0.91395999   -1315.6023    3.0872326    21837.339     3.186053    27.951164 
    2340   0.91464426   -1315.5924   -2.6841942    21841.261    3.1854809    27.952838 
    2350   0.91616421   -1315.5811   -8.2962726    21845.096    3.1849217    27.954474 
    2360   0.91843807   -1315.5686   -13.474172     21848.66    3.1844022    27.955994 
    2370    0.9213441    -1315.555   -17.965783    21851.784    3.1839469    27.957326 
    2380   0.92472805   -1315.5405   -21.553638    21854.321    3.1835773    27.958408 
    2390   0.92841523   -1315.5252   -24.064981    21856.154    3.1833103     27.95919 
    2400   0.93222484   -1315.5092   -25.379625    21857.201    3.1831578    27.959636 
    2410   0.93598364   -1315.4927   -25.435327    21857.419    3.1831261    27.959729 
    2420   0.93953661   -1315.4755   -24.230541    21856.806    3.1832153    27.959468 
    2430   0.94275336   -1315.4577   -21.824438    21855.402    3.1834198    27.958869 
    2440   0.94553078   -1315.4392   -18.334228    21853.286     3.183728    27.957967 
    2450   0.94779259   -1315.4199   -13.929838    21850.573    3.1841234    27.956809 
    2460   0.94948718   -1315.3997   -8.8261299    21847.405     3.184585    27.955459 
    2470   0.95058472   -1315.3783   -3.2729128    21843.952    3.1850885    27.953986 
    2480   0.95107399   -1315.3559    2.4568774    21840.393    3.1856075    27.952467 
    2490   0.95095944   -1315.3325    8.0803443    21836.916    3.1861147    27.950984 
    2500   0.95025855    -1315.308    13.318555    21833.705    3.1865834    27.949614 
    2510   0.94899937   -1315.2826    17.910537    21830.929    3.1869886    27.948429 
    2520   0.94721829   -1315.2566    21.626618    21828.737    3.1873085    27.947494 
    2530   0.94495804   -1315.2299    24.280346    21827.252    3.1875254     27.94686 
    2540   0.94226566   -1315.2029    25.738291    21826.558    3.1876268    27.946564 
    2550   0.93919071   -1315.1755    25.927128    21826.703    3.1876056    27.946626 
    2560   0.93578347   -1315.1479    24.837537    21827.692    3.1874611    27.947048 
    2570   0.93209332   -1315.1199    22.524679    21829.491    3.1871985    27.947816 
    2580   0.92816734   -1315.0916    19.105214    21832.024    3.1868287    27.948896 
    2590   0.92404902   -1315.0627    14.751058    21835.179    3.1863682    27.950243 
    2600   0.91977731   -1315.0333    9.6802787    21838.815    3.1858377    27.951794 
    2610   0.91538596   -1315.0032    4.1456904    21842.766    3.1852614     27.95348 
    2620    0.9109031   -1314.9723   -1.5781477    21846.853    3.1846656    27.955223 
    2630    0.9063512   -1314.9408   -7.2088036    21850.888    3.1840775    27.956944 
    2640   0.90174727   -1314.9085    -12.46996    21854.687    3.1835239    27.958564 
    2650   0.89710327   -1314.8758   -17.104816    21858.079    3.1830299    27.960011 
    2660   0.89242674   -1314.8426   -20.888297    21860.912    3.1826175    27.961218 
    2670   0.88772154   -1314.8093   -23.637538    21863.062    3.1823045    27.962135 
    2680   0.88298865   -1314.7758    -25.22027    21864.439    3.1821041    27.962722 
    2690   0.87822703   -1314.7423   -25.560784    21864.991    3.1820237    27.962957 
    2700   0.87343442   -1314.7088   -24.643316    21864.708    3.1820649    27.962837 
    2710   0.86860811   -1314.6753    -22.51272     21863.62    3.1822233    27.962373 
    2720   0.86374567   -1314.6417   -19.272435    21861.796    3.1824888    27.961595 
    2730   0.85884564   -1314.6079   -15.079797    21859.343    3.1828458     27.96055 
    2740   0.85390804   -1314.5738   -10.138849      21856.4    3.1832745    27.959294 
    2750   0.84893495   -1314.5392   -4.6908851    21853.126    3.1837514    27.957898 
    2760   0.84393089   -1314.5041   0.99691823    21849.701    3.1842505    27.956438 
    2770   0.83890319   -1314.4685    6.6443276     21846.31    3.1847447    27.954991 
    2780   0.83386223   -1314.4325    11.971777    21843.138    3.1852072    27.953638 
    2790   0.82882162   -1314.3962    16.714328    21840.358    3.1856127    27.952452 
    2800   0.82379822   -1314.3596    20.635142    21838.124    3.1859385    27.951499 
    2810   0.81881213   -1314.3231    23.537723    21836.564    3.1861661    27.950834 
    2820   0.81388655   -1314.2867     25.27621    21835.772    3.1862816    27.950496 
    2830   0.80904752   -1314.2506    25.763091    21835.805    3.1862769     27.95051 
    2840   0.80432363   -1314.2148    24.973858    21836.678    3.1861495    27.950882 
    2850   0.79974566   -1314.1793    22.948291    21838.365    3.1859034    27.951602 
    2860   0.79534614   -1314.1441    19.788304      21840.8    3.1855482    27.952641 
    2870   0.79115893   -1314.1091    15.652481     21843.88     3.185099    27.953955 
    2880   0.78721876   -1314.0742    10.747662    21847.471    3.1845755    27.955487 
    2890   0.78356084   -1314.0394    5.3181041    21851.412    3.1840011    27.957168 
    2900   0.78022044   -1314.0045  -0.36712431    21855.527    3.1834016    27.958922 
    2910   0.77723257   -1313.9697   -6.0277811    21859.629    3.1828042    27.960671 
    2920   0.77464777    -1313.886   -11.087872    21863.537    3.1822354    27.962337 
    2930   0.77249712   -1313.8516   -15.900314     21867.08    3.1817197    27.963848 
    2940   0.77079241   -1313.8177   -19.930641    21870.103    3.1812799    27.965137 
    2950   0.76956498   -1313.7844   -22.984445    21872.474     3.180935    27.966147 
    2960   0.76886523   -1313.7274   -24.766849    21874.095    3.1806994    27.966838 
    2970   0.76870245   -1313.6958   -25.492539    21874.905    3.1805817    27.967183 
    2980   0.76910034   -1313.6652   -24.976564     21874.88    3.1805852    27.967172 
    2990   0.77011027   -1313.5866   -22.943821    21874.039    3.1807075    27.966814 
    3000   0.77177801   -1313.5581   -20.093016    21872.446    3.1809392    27.966135 
    3010   0.77408774   -1313.5551   -16.412952    21870.194    3.1812667    27.965175 
    3020   0.77705416   -1313.5283   -11.783141    21867.407    3.1816722    27.963987 
    3030   0.78069364   -1313.5023   -6.5806056    21864.235    3.1821337    27.962635 
    3040   0.78502202   -1313.4769   -1.0601603    21860.851    3.1826264    27.961192 
    3050   0.79005248   -1313.4521    4.5066864    21857.433     3.183124    27.959735 
    3060   0.79579513   -1313.4281    9.8449397    21854.165    3.1836001    27.958341 
    3070   0.80225656   -1313.4048    14.689754    21851.219    3.1840292    27.957085 
    3080   0.80943946   -1313.3825    18.799809    21848.755    3.1843883    27.956034 
    3090   0.81734216   -1313.3612    21.969696    21846.906    3.1846579    27.955246 
    3100   0.82595832   -1313.3411    24.040611    21845.774    3.1848229    27.954763 
    3110   0.83527656   -1313.3223    24.908711    21845.427    3.1848734    27.954615 
    3120    0.8452802   -1313.3048    24.530599    21845.894    3.1848054    27.954814 
    3130   0.85594707   -1313.2887    22.925617     21847.16    3.1846208    27.955354 
    3140   0.86725733   -1313.2492    20.325279    21849.176     3.184327    27.956214 
    3150   0.87917667   -1313.2355    16.559702    21851.853    3.1839368    27.957356 
    3160   0.89165472   -1313.2228    11.967814    21855.071     3.183468    27.958728 
    3170   0.90464603   -1313.2109    6.7786516     21858.68    3.1829425    27.960267 
    3180   0.91809945   -1313.1999    1.2497708    21862.509    3.1823849    27.961899 
    3190   0.93196998   -1313.1651   -4.1952094     21866.38    3.1818217    27.963549 
    3200   0.94620338   -1313.1312   -9.4383233    21870.111    3.1812788     27.96514 
    3210   0.96073569   -1313.1473   -14.523973    21873.531    3.1807814    27.966597 
    3220   0.97547995   -1313.1398   -18.757287    21876.477    3.1803531    27.967853 
    3230   0.99033187   -1313.1336   -22.083068    21878.808    3.1800142    27.968846 
    3240    1.0052128   -1313.1041   -24.191286    21880.416    3.1797805    27.969532 
    3250    1.0200559   -1313.0761   -25.132773    21881.232    3.1796619    27.969879 
    3260    1.0347057   -1313.0742   -25.014303    21881.225    3.1796629    27.969876 
    3270    1.0490224   -1313.0739   -23.692605    21880.399    3.1797829    27.969524 
    3280    1.0628686   -1313.0751   -21.233231    21878.798    3.1800156    27.968842 
    3290    1.0760933   -1313.0778   -17.756814    21876.503    3.1803492    27.967864 
    3300    1.0885311    -1313.082   -13.433564    21873.629    3.1807672    27.966639 
    3310    1.1000024   -1313.0874   -8.4754276    21870.316     3.181249    27.965227 
    3320    1.1103309   -1313.0696   -2.9783468     21866.73    3.1817706    27.963699 
    3330    1.1193224   -1313.1023    2.3376346    21863.048    3.1823065    27.962129 
    3340    1.1267704   -1313.1117    7.6606768    21859.445    3.1828311    27.960593 
    3350    1.1324971   -1313.1472    12.422862    21856.095     3.183319    27.959164 
    3360    1.1364066   -1313.1597    16.684192    21853.155    3.1837471    27.957911 
    3370    1.1383779    -1313.174    20.085686    21850.762    3.1840958     27.95689 
    3380      1.13845   -1313.1902    22.456823    21849.026    3.1843488     27.95615 
    3390    1.1367932   -1313.2084    23.678988    21848.024    3.1844949    27.955723 
    3400    1.1337144   -1313.2287    23.691779    21847.795    3.1845282    27.955625 
    3410    1.1296321   -1313.2511    22.496146     21848.34    3.1844489    27.955857 
    3420    1.1250224   -1313.2755    20.154175    21849.618    3.1842625    27.956403 
    3430      1.12036   -1313.2772    16.933477    21851.557      3.18398    27.957229 
    3440    1.1160334   -1313.3053    12.698441    21854.048    3.1836171    27.958292 
    3450    1.1123432   -1313.3349    7.8138267    21856.953    3.1831939    27.959531 
    3460    1.1095169   -1313.4152    2.2232978    21860.112    3.1827339    27.960878 
    3470    1.1076528   -1313.4477   -3.1951366    21863.346    3.1822631    27.962256 
    3480    1.1067478    -1313.506   -8.6206414    21866.473     3.181808    27.963589 
    3490    1.1067517    -1313.541   -13.485407    21869.319    3.1813941    27.964802 
    3500    1.1075735   -1313.5771   -17.701248    21871.722    3.1810445    27.965827 
    3510    1.1091641   -1313.6636   -21.357412    21873.542    3.1807798    27.966602 
    3520    1.1113355   -1313.7268   -23.827686    21874.662    3.1806169     27.96708 
    3530    1.1139595   -1313.7664   -24.994027    21875.005     3.180567    27.967226 
    3540    1.1168748   -1313.8071   -24.945739    21874.531     3.180636    27.967024 
    3550    1.1199811   -1313.8732   -23.830909    21873.238     3.180824    27.966473 
    3560    1.1230981   -1313.9153   -21.401547    21871.167    3.1811252     27.96559 
    3570    1.1260891   -1313.9577   -17.923541    21868.397    3.1815282    27.964409 
    3580    1.1288506   -1314.0247   -13.712484    21865.041    3.1820164    27.962979 
    3590      1.13126   -1314.0668    -8.669866     21861.24    3.1825697    27.961358 
    3600    1.1332038   -1314.1084   -3.1897492    21857.158    3.1831641    27.959618 
    3610    1.1345927    -1314.149    2.4618116    21852.974    3.1837735    27.957834 
    3620    1.1353508   -1314.1887    8.0089168    21848.873    3.1843711    27.956085 
    3630    1.1354159   -1314.2272    13.179367    21845.037    3.1849304    27.954448 
    3640    1.1347397   -1314.2646     17.71829    21841.632    3.1854268    27.952996 
    3650    1.1332877   -1314.3008    21.401131    21838.808    3.1858387    27.951791 
    3660    1.1310393   -1314.3359    24.045285    21836.683    3.1861487    27.950885 
    3670    1.1279878   -1314.3699    25.519669    21835.344    3.1863442    27.950313 
    3680    1.1241402   -1314.4027    25.751671    21834.837    3.1864182    27.950097 
    3690    1.1195164   -1314.4343    24.731004     21835.17    3.1863695    27.950239 
    3700    1.1141491   -1314.4646    22.510246    21836.309    3.1862033    27.950725 
    3710    1.1080828   -1314.4936    19.202014    21838.183      3.18593    27.951524 
    3720    1.1013725    -1314.521    14.972959    21840.682    3.1855654    27.952591 
    3730    1.0940829   -1314.5467    10.034967    21843.669    3.1851298    27.953865 
    3740     1.086287   -1314.5707     4.634113    21846.983    3.1846466    27.955279 
    3750    1.0780642   -1314.5928  -0.96197012    21850.448    3.1841416    27.956756 
    3760    1.0694993   -1314.6133   -6.4775938    21853.881    3.1836414     27.95822 
    3770     1.060681    -1314.632    -11.64265    21857.102    3.1831723    27.959594 
    3780       1.0517   -1314.6493   -16.205709    21859.941    3.1827588    27.960805 
    3790    1.0426484   -1314.6653   -19.945963    21862.251    3.1824225    27.961789 
    3800     1.033618   -1314.6802   -22.683526    21863.909    3.1821812    27.962496 
    3810    1.0246994   -1314.6942   -24.287672    21864.825     3.182048    27.962886 
    3820    1.0159813   -1314.7075   -24.682741    21864.946    3.1820302    27.962938 
    3830    1.0075497   -1314.7202   -23.851505    21864.262    3.1821299    27.962646 
    3840   0.99948722   -1314.7323   -21.835898    21862.798    3.1823429    27.962022 
    3850   0.99187288   -1314.7439   -18.735093    21860.621    3.1826598    27.961095 
    3860   0.98478147   -1314.7549   -14.700979    21857.834    3.1830656    27.959906 
    3870   0.97828328   -1314.7653   -9.9311885    21854.569    3.1835412    27.958514 
    3880    0.9724437   -1314.7751   -4.6599072    21850.981    3.1840639    27.956984 
    3890   0.96732283   -1314.7842   0.85318331    21847.243    3.1846087     27.95539 
    3900   0.96297493   -1314.7928    6.3353968    21843.536    3.1851492    27.953808 
    3910   0.95944782   -1314.8009    11.514408    21840.038    3.1856593    27.952316 
    3920   0.95678214   -1314.8087    16.131857    21836.917    3.1861146    27.950984 
    3930   0.95501038   -1314.8164    19.956484    21834.324    3.1864929    27.949878 
    3940   0.95415585   -1314.8241    22.796076    21832.384    3.1867762     27.94905 
    3950   0.95423146   -1314.8321    24.507524    21831.187    3.1869509    27.948539 
    3960   0.95523834   -1314.8404     25.00438     21830.79    3.1870089     27.94837 
    3970    0.9571645   -1314.8491    24.261448    21831.207    3.1869479    27.948548 
    3980   0.95998339   -1314.8583    22.316101    21832.416    3.1867715    27.949064 
    3990   0.96365274   -1314.8677    19.266253    21834.351     3.186489     27.94989 
    4000    0.9681135   -1314.8774    15.265115    21836.914     3.186115    27.950983 
    4010    0.9732893   -1314.8871    10.513064    21839.975    3.1856686    27.952289 
    4020   0.97908634   -1314.8969    5.2471516    21843.377    3.1851724     27.95374 
    4030    0.9853939   -1314.9065   -0.2711371     21846.95    3.1846514    27.955264 
    4040   0.99208561    -1314.916   -5.7691443    21850.513    3.1841321    27.956784 
    4050   0.99902126   -1314.9253   -10.976612    21853.887    3.1836405    27.958223 
    4060    1.0060493   -1314.9346   -15.638866    21856.902    3.1832013    27.959509 
    4070    1.0130102   -1314.9439   -19.528998    21859.406    3.1828368    27.960576 
    4080    1.0197394   -1314.9534   -22.458509     21861.27    3.1825653    27.961371 
    4090    1.0260722    -1314.963   -24.286007    21862.401    3.1824008    27.961853 
    4100    1.0318477   -1314.9728   -24.923623    21862.737    3.1823518    27.961997 
    4110    1.0369138   -1314.9829   -24.340965    21862.259    3.1824214    27.961793 
    4120    1.0411323   -1314.9932   -22.566451    21860.986    3.1826067     27.96125 
    4130    1.0443848   -1315.0035   -19.686007    21858.977    3.1828992    27.960393 
    4140    1.0465777   -1315.0138   -15.839163    21856.325    3.1832853    27.959263 
    4150    1.0476478   -1315.0237   -11.212665    21853.159    3.1837466    27.957912 
    4160    1.0475667   -1315.0333    -6.031832    21849.628    3.1842611    27.956407 
    4170    1.0463433   -1315.0424  -0.54996626    21845.903    3.1848041    27.954818 
    4180    1.0440247   -1315.0509    4.9637661    21842.162    3.1853495    27.953222 
    4190    1.0406938   -1315.0588    10.237453    21838.586    3.1858711    27.951696 
    4200    1.0364647   -1315.0663    15.009938    21835.346    3.1863439    27.950314 
    4210    1.0314751   -1315.0733    19.044023    21832.597     3.186745    27.949141 
    4220    1.0258777   -1315.0801    22.138651    21830.471    3.1870554    27.948234 
    4230    1.0198308   -1315.0867    24.139377    21829.067    3.1872603    27.947635 
    4240    1.0134906   -1315.0932    24.946494    21828.451    3.1873503    27.947372 
    4250    1.0070046   -1315.0998    24.520316    21828.648    3.1873215    27.947456 
    4260    1.0005074   -1315.1062    22.883273    21829.644    3.1871761    27.947881 
    4270   0.99411818   -1315.1126    20.118693    21831.385    3.1869219    27.948624 
    4280   0.98794054   -1315.1187     16.36634    21833.782    3.1865721    27.949647 
    4290   0.98206292   -1315.1245       11.815    21836.711    3.1861447    27.950896 
    4300   0.97655998   -1315.1298    6.6925771    21840.025    3.1856612     27.95231 
    4310   0.97149419   -1315.1345    1.2542983    21843.556    3.1851462    27.953817 
    4320   0.96691754   -1315.1386   -4.2302748    21847.128    3.1846255     27.95534 
    4330   0.96287295   -1315.1422   -9.4907204     21850.56    3.1841253    27.956804 
    4340   0.95939559   -1315.1452   -14.269011    21853.682    3.1836704    27.958136 
    4350   0.95651372   -1315.1478   -18.331914    21856.337    3.1832837    27.959268 
    4360    0.9542493   -1315.1501   -21.481989    21858.393    3.1829843    27.960144 
    4370    0.9526182   -1315.1522   -23.566735    21859.746    3.1827873    27.960721 
    4380    0.9516301   -1315.1541   -24.485552    21860.329    3.1827024     27.96097 
    4390   0.95128803    -1315.156   -24.194282    21860.111     3.182734    27.960877 
    4400   0.95158757   -1315.1576    -22.70717    21859.104    3.1828807    27.960448 
    4410    0.9525159   -1315.1591   -20.096213    21857.356    3.1831353    27.959702 
    4420   0.95405059   -1315.1602   -16.487891    21854.952    3.1834853    27.958677 
    4430   0.95615846   -1315.1608   -12.057401    21852.012    3.1839137    27.957423 
    4440   0.95879462   -1315.1607   -7.0205726     21848.68    3.1843992    27.956003 
    4450   0.96190193   -1315.1599   -1.6237683    21845.122    3.1849179    27.954485 
    4460   0.96541112   -1315.1583    3.8678562    21841.513    3.1854442    27.952945 
    4470   0.96924171   -1315.1558    9.1832238    21838.033    3.1859519     27.95146 
    4480   0.97330399   -1315.1526    14.058749    21834.854    3.1864156    27.950104 
    4490   0.97750171   -1315.1486    18.251626    21832.136    3.1868123    27.948944 
    4500   0.98173564   -1315.1441    21.552269    21830.015     3.187122    27.948039 
    4510   0.98590739   -1315.1392    23.795213    21828.597     3.187329    27.947434 
    4520   0.98992333   -1315.1338    24.867818    21827.955    3.1874228     27.94716 
    4530   0.99369803   -1315.1282    24.716226    21828.124    3.1873981    27.947232 
    4540   0.99715721   -1315.1223    23.348226    21829.098    3.1872559    27.947648 
    4550    1.0002398   -1315.1161    20.832801    21830.833    3.1870026    27.948388 
    4560    1.0028992   -1315.1095    17.296431    21833.246    3.1866504    27.949418 
    4570    1.0051037   -1315.1024    12.916354    21836.222    3.1862161    27.950688 
    4580    1.0068362   -1315.0946    7.9112341    21839.618    3.1857206    27.952137 
    4590    1.0080936   -1315.0863    2.5298076    21843.272    3.1851877    27.953695 
    4600    1.0088856   -1315.0773   -2.9618349    21847.007    3.1846431    27.955289 
    4610    1.0092333   -1315.0677   -8.2936026    21850.644     3.184113     27.95684 
    4620    1.0091675   -1315.0576     -13.2047     21854.01    3.1836226    27.958275 
    4630     1.008727   -1315.0471   -17.456208    21856.944    3.1831953    27.959526 
    4640    1.0079574   -1315.0364    -20.84239    21859.306    3.1828513    27.960534 
    4650    1.0069086   -1315.0258   -23.200246    21860.987    3.1826066     27.96125 
    4660    1.0056341   -1315.0153   -24.416961    21861.909    3.1824723    27.961643 
    4670    1.0041887    -1315.005   -24.434988    21862.033    3.1824543    27.961696 
    4680    1.0026272   -1314.9949   -23.254604    21861.359    3.1825524    27.961409 
    4690    1.0010035   -1314.9851   -20.933852    21859.925    3.1827611    27.960798 
    4700   0.99936876   -1314.9754   -17.585894    21857.809    3.1830693    27.959895 
    4710   0.99777034   -1314.9658   -13.373836     21855.12    3.1834609    27.958749 
    4720   0.99625102   -1314.9562   -8.5032116    21851.996     3.183916    27.957417 
    4730   0.99484789   -1314.9465   -3.2123817    21848.597    3.1844114    27.955967 
    4740    0.9935916   -1314.9365    2.2387815    21845.095    3.1849219    27.954473 
    4750   0.99250575   -1314.9264    7.5814565    21841.669    3.1854214    27.953012 
    4760   0.99160645   -1314.9161    12.551113    21838.493    3.1858847    27.951657 
    4770   0.99090203   -1314.9058    16.900779    21835.728    3.1862881    27.950477 
    4780   0.99039293   -1314.8955    20.413641    21833.516     3.186611    27.949533 
    4790   0.99007188   -1314.8854    22.914262     21831.97    3.1868365    27.948874 
    4800   0.98992422   -1314.8755    24.277775    21831.173    3.1869529    27.948533 
    4810   0.98992846   -1314.8659    24.436465    21831.167    3.1869538    27.948531 
    4820   0.99005706   -1314.8565    23.383354    21831.958    3.1868383    27.948868 
    4830   0.99027736   -1314.8473    21.172531     21833.51    3.1866117    27.949531 
    4840   0.99055267   -1314.8381    17.916235    21835.752    3.1862845    27.950488 
    4850   0.99084349   -1314.8287    13.778857    21838.578    3.1858723    27.951693 
    4860   0.99110873   -1314.8191    8.9682572    21841.852    3.1853948     27.95309 
    4870     0.991307    -1314.809    3.7249236    21845.417    3.1848749    27.954611 
    4880   0.99139774   -1314.7984   -1.6903743    21849.103    3.1843376    27.956183 
    4890   0.99134243   -1314.7872   -7.0097411    21852.733    3.1838087    27.957731 
    4900   0.99110547   -1314.7754   -11.971415    21856.133    3.1833134    27.959181 
    4910   0.99065509   -1314.7631   -16.332472     21859.14    3.1828754    27.960463 
    4920   0.98996397   -1314.7503   -19.880385    21861.613    3.1825154    27.961517 
    4930   0.98900976   -1314.7371   -22.442955    21863.436    3.1822501    27.962294 
    4940   0.98777535   -1314.7235   -23.896227    21864.524    3.1820917    27.962758 
    4950   0.98624904   -1314.7097   -24.170105    21864.831     3.182047    27.962889 
    4960   0.98442446   -1314.6956   -23.251494    21864.348    3.1821173    27.962683 
    4970   0.98230038   -1314.6811   -21.184857    21863.106    3.1822981    27.962154 
    4980   0.97988028   -1314.6661   -18.070185    21861.173    3.1825795     27.96133 
    4990   0.97717184   -1314.6504   -14.058437     21858.65    3.1829468    27.960254 
    5000   0.97418617    -1314.634   -9.3446016     21855.67    3.1833808    27.958983 
    5010     0.970937   -1314.6167   -4.1586213    21852.388     3.183859    27.957584 
    5020   0.96743969   -1314.5984    1.2454786    21848.972    3.1843567    27.956127 
    5030   0.96371024   -1314.5791    6.6018153    21845.599    3.1848484    27.954688 
    5040   0.95976425   -1314.5588    11.645685    21842.444    3.1853084    27.953342 
    5050   0.95561611   -1314.5376    16.126778    21839.672    3.1857127     27.95216 
    5060   0.95127829   -1314.5157    19.821897    21837.427    3.1860402    27.951202 
    5070   0.94676101   -1314.4932    22.546466     21835.83    3.1862732    27.950521 
    5080   0.94207234   -1314.4701    24.164165     21834.97    3.1863987    27.950154 
    5090   0.93721876   -1314.4467    24.594115    21834.897    3.1864093    27.950123 
    5100   0.93220611   -1314.4229    23.815149    21835.627    3.1863028    27.950434 
    5110   0.92704095   -1314.3987    21.866911    21837.133    3.1860831    27.951076 
    5120   0.92173202   -1314.3742    18.847708    21839.351    3.1857595    27.952023 
    5130   0.91629167   -1314.3491    14.909251    21842.183    3.1853464    27.953231 
    5140   0.91073696   -1314.3235    10.248632    21845.501    3.1848627    27.954646 
    5150   0.90509045   -1314.2973     5.098015    21849.151    3.1843306    27.956203 
    5160   0.89938031   -1314.2704  -0.28731597    21852.967    3.1837745    27.957831 
    5170   0.89364005    -1314.243   -5.6418851    21856.773    3.1832202    27.959453 
    5180   0.88790778    -1314.215   -10.703216    21860.392    3.1826931    27.960997 
    5190   0.88222529   -1314.1867   -15.224622    21863.661    3.1822173     27.96239 
    5200   0.87663702   -1314.1582    -18.98699    21866.431    3.1818142    27.963571 
    5210   0.87120641   -1314.1052   -21.660667    21868.581    3.1815013    27.964488 
    5220   0.86596314   -1314.0769   -23.417315    21870.022    3.1812917    27.965102 
    5230   0.86095142   -1314.0489    -24.02256    21870.697    3.1811936     27.96539 
    5240   0.85621928   -1314.0213   -23.448882    21870.585    3.1812098    27.965342 
    5250   0.85181526   -1313.9943   -21.725666    21869.708    3.1813375    27.964968 
    5260   0.84778841   -1313.9676   -18.937841     21868.12    3.1815684    27.964291 
    5270   0.84418851   -1313.9415   -15.221988    21865.915    3.1818893    27.963351 
    5280   0.84106604   -1313.9157   -10.760061    21863.214    3.1822824      27.9622 
    5290   0.83847226   -1313.8903   -5.7709374    21860.163    3.1827265    27.960899 
    5300   0.83645905   -1313.8654  -0.50009754    21856.926    3.1831979    27.959519 
    5310   0.83507867   -1313.8408    4.7921411    21853.675    3.1836714    27.958133 
    5320    0.8343833   -1313.8168    9.8433285    21850.584    3.1841218    27.956814 
    5330   0.83447171   -1313.7444    14.700569    21847.818    3.1845249    27.955635 
    5340   0.83537051   -1313.7221    18.521399    21845.533     3.184858     27.95466 
    5350   0.83709841   -1313.7009    21.415282    21843.854    3.1851028    27.953944 
    5360    0.8397051   -1313.6564     23.38778    21842.875    3.1852455    27.953526 
    5370   0.84325676   -1313.6379    24.039381    21842.658    3.1852772    27.953434 
    5380   0.84775392    -1313.621     23.48579    21843.225    3.1851945    27.953675 
    5390   0.85322465   -1313.6056    21.754563    21844.558    3.1850002    27.954244 
    5400   0.85969546   -1313.5672    19.083524      21846.6    3.1847025    27.955115 
    5410   0.86719543   -1313.5303    15.456892    21849.263    3.1843143    27.956251 
    5420   0.87572582   -1313.4949    11.054684    21852.429    3.1838529    27.957601 
    5430   0.88526074   -1313.4609    6.0963103    21855.955    3.1833393    27.959105 
    5440   0.89577444   -1313.4281   0.82907524    21859.677    3.1827973    27.960692 
    5450   0.90724805   -1313.3967   -4.4865826    21863.423     3.182252    27.962289 
    5460   0.91965438   -1313.3912   -9.7404457    21867.018    3.1817288    27.963822 
    5470   0.93288999   -1313.3625   -14.379984    21870.296    3.1812519    27.965219 
    5480   0.94687111   -1313.3598   -18.478839    21873.102    3.1808437    27.966415 
    5490    0.9615155   -1313.3832   -21.838693    21875.303    3.1805238    27.967353 
    5500   0.97673323   -1313.3838   -23.997988    21876.789    3.1803077    27.967986 
    5510     0.992389   -1313.3862   -25.002565    21877.489    3.1802059    27.968284 
    5520     1.008345   -1313.3903   -24.805073    21877.371     3.180223    27.968234 
    5530    1.0244438   -1313.3963   -23.416081    21876.442    3.1803581    27.967838 
    5540     1.040513   -1313.4284   -21.054025    21874.747    3.1806046    27.967116 
    5550    1.0563614   -1313.4622   -17.683616    21872.364    3.1809511      27.9661 
    5560    1.0717563   -1313.4728   -13.318463    21869.406    3.1813814    27.964839 
    5570    1.0864364   -1313.4846   -8.3219083    21866.014    3.1818748    27.963394 
    5580    1.1001289   -1313.4729   -2.7889423    21862.354    3.1824075    27.961833 
    5590    1.1125126   -1313.4868    2.7080787    21858.606    3.1829532    27.960235 
    5600    1.1232506   -1313.5017    8.0485005    21854.949    3.1834858    27.958676 
    5610    1.1320162   -1313.5175    12.967493    21851.559    3.1839798     27.95723 
    5620    1.1385216   -1313.5343    17.220251    21848.594    3.1844118    27.955966 
    5630    1.1425754   -1313.5523    20.594668    21846.193    3.1847617    27.954942 
    5640     1.144168   -1313.5961     22.77188    21844.466    3.1850136    27.954205 
    5650     1.143522   -1313.6411    23.793484    21843.484    3.1851568    27.953786 
    5660    1.1411128   -1313.6629    23.759534    21843.281    3.1851864    27.953699 
    5670    1.1375816   -1313.6859    22.526912    21843.853     3.185103    27.953943 
    5680    1.1336269   -1313.7102    20.160766    21845.159    3.1849124    27.954501 
    5690    1.1298578   -1313.7601    16.633343    21847.122    3.1846263    27.955338 
    5700    1.1266432   -1313.7864    12.423795    21849.627    3.1842613    27.956406 
    5710    1.1241657   -1313.8381    7.4425402    21852.535    3.1838374    27.957647 
    5720    1.1224482   -1313.8659    2.2391184    21855.686    3.1833785     27.95899 
    5730    1.1214143   -1313.8942   -3.0784559    21858.909    3.1829092    27.960364 
    5740      1.12099   -1313.9721   -8.5484135    21862.028     3.182455    27.961694 
    5750    1.1211106   -1314.0261   -13.448573    21864.866    3.1820419    27.962904 
    5760    1.1215914    -1314.056   -17.539665    21867.264     3.181693    27.963926 
    5770    1.1223243   -1314.0864    -20.77306    21869.087    3.1814278    27.964703 
    5780    1.1232134   -1314.1173   -22.991084     21870.23    3.1812615     27.96519 
    5790    1.1242356   -1314.1979    -24.38538    21870.618     3.181205    27.965356 
    5800    1.1252947     -1314.23   -24.286878     21870.21    3.1812643    27.965182 
    5810    1.1262721   -1314.2624   -22.999968    21869.009    3.1814391     27.96467 
    5820    1.1270973   -1314.2949   -20.585595    21867.057    3.1817231    27.963838 
    5830    1.1277059   -1314.3275   -17.159268    21864.433    3.1821049     27.96272 
    5840    1.1280394   -1314.3597   -12.885818    21861.251    3.1825681    27.961363 
    5850    1.1280454   -1314.3915   -7.9718249    21857.651    3.1830923    27.959828 
    5860    1.1276782   -1314.4225   -2.6559837    21853.793    3.1836542    27.958183 
    5870    1.1268986   -1314.4528    2.8022177    21849.853    3.1842284    27.956502 
    5880     1.125675    -1314.482    8.1350414    21846.007    3.1847889    27.954862 
    5890    1.1239828   -1314.5104    13.079689     21842.43    3.1853104    27.953336 
    5900    1.1218052   -1314.5378    17.391491    21839.283    3.1857695    27.951994 
    5910    1.1191335   -1314.5643    20.856391    21836.706    3.1861455    27.950894 
    5920    1.1159663     -1314.59    23.302039     21834.81     3.186422    27.950085 
    5930    1.1123104    -1314.615    24.606822    21833.676    3.1865876    27.949602 
    5940    1.1081795   -1314.6393    24.706288    21833.345    3.1866359     27.94946 
    5950    1.1035946   -1314.6629     23.59656    21833.819    3.1865667    27.949663 
    5960    1.0985831   -1314.6857    21.334522    21835.062    3.1863852    27.950193 
    5970    1.0931782   -1314.7075    18.034753    21837.001    3.1861024     27.95102 
    5980    1.0874179   -1314.7284     13.86343    21839.526     3.185734    27.952098 
    5990    1.0813444   -1314.7482    9.0295688    21842.503    3.1852999    27.953367 
    6000    1.0750031   -1314.7668    3.7741441    21845.772    3.1848231    27.954762 
    6010    1.0684418   -1314.7841   -1.6422529    21849.163    3.1843288    27.956209 
    6020    1.0617093   -1314.8002   -6.9525366      21852.5    3.1838426    27.957631 
    6030    1.0548552   -1314.8152   -11.896319    21855.608    3.1833899    27.958957 
    6040    1.0479287   -1314.8291   -16.232523    21858.325    3.1829941    27.960116 
    6050     1.040978   -1314.8422   -19.750828    21860.512    3.1826757    27.961048 
    6060      1.03405   -1314.8545   -22.281485    21862.052    3.1824515    27.961704 
    6070    1.0271893   -1314.8663   -23.703094    21862.863    3.1823334     27.96205 
    6080    1.0204386   -1314.8776   -23.948098      21862.9    3.1823281    27.962066 
    6090    1.0138381   -1314.8884   -23.005794    21862.154    3.1824367    27.961748 
    6100    1.0074256   -1314.8987   -20.922771    21860.657    3.1826545     27.96111 
    6110    1.0012365   -1314.9086    -17.80077    21858.478    3.1829718    27.960181 
    6120   0.99530405   -1314.9178   -13.792033     21855.72    3.1833735    27.959005 
    6130   0.98965979   -1314.9263   -9.0922891    21852.514    3.1838405    27.957638 
    6140   0.98433357   -1314.9341   -3.9316249    21849.014    3.1843506    27.956145 
    6150   0.97935411    -1314.941    1.4364105    21845.389     3.184879    27.954599 
    6160   0.97474932   -1314.9471    6.7470279    21841.814    3.1854003    27.953074 
    6170   0.97054667   -1314.9524    11.737197    21838.462    3.1858891    27.951644 
    6180   0.96677346   -1314.9571    16.158792    21835.497    3.1863219    27.950378 
    6190   0.96345711   -1314.9613    19.791209     21833.06    3.1866775    27.949339 
    6200   0.96062515   -1314.9651    22.452744     21831.27    3.1869387    27.948575 
    6210   0.95830524   -1314.9686     24.01008    21830.214    3.1870929    27.948124 
    6220   0.95652481    -1314.972    24.385302    21829.941    3.1871328    27.948008 
    6230   0.95531053   -1314.9753    23.560007    21830.462    3.1870567     27.94823 
    6240   0.95468745   -1314.9784    21.576245    21831.751    3.1868685     27.94878 
    6250   0.95467785   -1314.9814    18.534227    21833.743    3.1865778     27.94963 
    6260   0.95529965    -1314.984    14.586963    21836.337    3.1861992    27.950737 
    6270   0.95656461   -1314.9863    9.9321513    21839.406    3.1857515    27.952046 
    6280   0.95847622   -1314.9881    4.8018471    21842.797    3.1852569    27.953493 
    6290   0.96102747   -1314.9894  -0.54949533    21846.343    3.1847399    27.955006 
    6300   0.96419877   -1314.9902   -5.8579033     21849.87    3.1842259     27.95651 
    6310   0.96795616   -1314.9905      -10.863    21853.203    3.1837402    27.957931 
    6320   0.97225023   -1314.9905   -15.320689     21856.18    3.1833065    27.959201 
    6330   0.97701589   -1314.9902   -19.014806    21858.656     3.182946    27.960256 
    6340   0.98217331   -1314.9899   -21.767253    21860.509    3.1826762    27.961046 
    6350   0.98762983   -1314.9896   -23.446189    21861.649    3.1825101    27.961533 
    6360   0.99328283   -1314.9895   -23.972007    21862.024    3.1824556    27.961692 
    6370   0.99902318   -1314.9895    -23.32088    21861.614    3.1825152    27.961518 
    6380    1.0047387   -1314.9896    -21.52578    21860.444    3.1826856    27.961019 
    6390    1.0103178   -1314.9898   -18.674928    21858.571    3.1829583     27.96022 
    6400    1.0156517   -1314.9901   -14.907743     21856.09    3.1833196    27.959163 
    6410    1.0206373   -1314.9902   -10.408414    21853.125    3.1837515    27.957898 
    6420    1.0251783     -1314.99   -5.3973181    21849.823    3.1842327     27.95649 
    6430    1.0291864   -1314.9896  -0.12060893    21846.347    3.1847392    27.955007 
    6440    1.0325818   -1314.9889    5.1616059    21842.872    3.1852461    27.953525 
    6450    1.0352944   -1314.9878    10.187986    21839.567     3.185728    27.952115 
    6460    1.0372641   -1314.9865    14.708967    21836.598    3.1861611    27.950848 
    6470    1.0384423   -1314.9851    18.499398    21834.111     3.186524    27.949787 
    6480    1.0387926   -1314.9837    21.370113     21832.23    3.1867987    27.948984 
    6490    1.0382929   -1314.9823    23.177777    21831.046    3.1869715    27.948479 
    6500    1.0369373   -1314.9811    23.832417    21830.618    3.1870339    27.948297 
    6510    1.0347372   -1314.9801    23.302158    21830.968    3.1869829    27.948446 
    6520    1.0317236   -1314.9792    21.614891    21832.076     3.186821    27.948919 
    6530    1.0279473   -1314.9784    18.856733    21833.889    3.1865565    27.949692 
    6540    1.0234793   -1314.9775    15.167414    21836.315    3.1862025    27.950727 
    6550    1.0184089   -1314.9764    10.732852    21839.234    3.1857766    27.951973 
    6560    1.0128413   -1314.9751    5.7754073    21842.501    3.1853001    27.953367 
    6570    1.0068935   -1314.9733   0.54237925    21845.955    3.1847964     27.95484 
    6580    1.0006896   -1314.9711   -4.7065673    21849.425    3.1842906     27.95632 
    6590   0.99435573   -1314.9685   -9.7123712     21852.74    3.1838076    27.957734 
    6600   0.98801563   -1314.9655   -14.229264    21855.736    3.1833712    27.959011 
    6610   0.98178715   -1314.9622   -18.036576    21858.265    3.1830029     27.96009 
    6620   0.97577983   -1314.9588   -20.949135    21860.204    3.1827206    27.960916 
    6630   0.97009387   -1314.9553   -22.825841    21861.457    3.1825381    27.961451 
    6640   0.96482021   -1314.9517   -23.576103    21861.964    3.1824643    27.961667 
    6650   0.96004124   -1314.9482   -23.163907      21861.7    3.1825027    27.961555 
    6660   0.95583199   -1314.9447     -21.6094     21860.68    3.1826512     27.96112 
    6670   0.95226097   -1314.9411   -18.987932    21858.956    3.1829023    27.960384 
    6680   0.94939056   -1314.9372   -15.426601    21856.612    3.1832436    27.959385 
    6690   0.94727621    -1314.933   -11.098406    21853.768    3.1836579    27.958172 
    6700   0.94596404   -1314.9283   -6.2142189    21850.563    3.1841248    27.956806 
    6710   0.94548657    -1314.923   -1.0128647    21847.159    3.1846209    27.955354 
    6720   0.94585618    -1314.917    4.2502866    21843.726    3.1851215    27.953889 
    6730   0.94705692   -1314.9104    9.3157339    21840.434    3.1856015    27.952485 
    6740   0.94903573   -1314.9033    13.932681    21837.449    3.1860369    27.951212 
    6750   0.95169553   -1314.8955    17.871656    21834.922    3.1864057    27.950133 
    6760   0.95489321   -1314.8874    20.936247    21832.979    3.1866892    27.949304 
    6770   0.95844546   -1314.8789    22.973293    21831.721     3.186873    27.948767 
    6780    0.9621433   -1314.8702    23.880935    21831.212    3.1869473     27.94855 
    6790   0.96577321   -1314.8612    23.614019    21831.482    3.1869079    27.948665 
    6800   0.96913988   -1314.8519    22.186508    21832.521    3.1867562    27.949109 
    6810   0.97208472   -1314.8423    19.670734    21834.282    3.1864991     27.94986 
    6820    0.9744963   -1314.8323    16.193531    21836.684    3.1861486    27.950885 
    6830   0.97631216   -1314.8218    11.929484    21839.612    3.1857214    27.952134 
    6840   0.97751377   -1314.8106    7.0917465    21842.928    3.1852379    27.953549 
    6850   0.97811798   -1314.7988    1.9209707    21846.473     3.184721    27.955061 
    6860   0.97816762   -1314.7862   -3.3269859    21850.078    3.1841955    27.956599 
    6870   0.97772286    -1314.773   -8.3938918    21853.573    3.1836862    27.958089 
    6880   0.97685422   -1314.7592   -13.031842    21856.792    3.1832173    27.959462 
    6890   0.97563717    -1314.745   -17.015212    21859.584    3.1828108    27.960652 
    6900   0.97414802   -1314.7305   -20.151327    21861.818    3.1824856    27.961605 
    6910   0.97246092   -1314.7159   -22.289416    21863.392    3.1822564    27.962276 
    6920   0.97064557   -1314.7013   -23.327497    21864.237    3.1821335    27.962636 
    6930    0.9687655   -1314.6868   -23.216975    21864.319    3.1821215    27.962671 
    6940   0.96687684   -1314.6723   -21.964784    21863.643    3.1822199    27.962383 
    6950   0.96502747    -1314.658   -19.633019    21862.249    3.1824228    27.961789 
    6960   0.96325674   -1314.6438   -16.336078    21860.216    3.1827188    27.960922 
    6970   0.96159554   -1314.6295   -12.235387    21857.651    3.1830922    27.959828 
    6980   0.96006697   -1314.6151   -7.5319124    21854.689    3.1835236    27.958565 
    6990   0.95868746   -1314.6007    -2.456724    21851.485    3.1839905    27.957198 
    7000   0.95746834   -1314.5861    2.7400332    21848.203    3.1844688    27.955799 
    7010   0.95641767   -1314.5713    7.8012749    21845.014    3.1849337    27.954439 
    7020   0.95554208   -1314.5566    12.475673    21842.083    3.1853611    27.953188 
    7030    0.9548486   -1314.5421     16.53028    21839.561    3.1857288    27.952113 
    7040   0.95434598   -1314.5278    19.762412    21837.581    3.1860177    27.951268 
    7050   0.95404566   -1314.5139    22.010129    21836.247    3.1862123    27.950699 
    7060   0.95396204   -1314.5006    23.160692    21835.632    3.1863021    27.950436 
    7070   0.95411225   -1314.4879    23.156485    21835.773    3.1862816    27.950496 
    7080   0.95451538    -1314.476    21.998034    21836.668     3.186151    27.950878 
    7090   0.95519146   -1314.4647    19.743934    21838.279    3.1859158    27.951566 
    7100   0.95616016    -1314.454    16.507685    21840.534     3.185587    27.952528 
    7110   0.95743949   -1314.4438    12.451649    21843.325    3.1851799    27.953718 
    7120   0.95904465   -1314.4342    7.7785017    21846.521     3.184714    27.955081 
    7130   0.96098695   -1314.4249     2.720706    21849.968    3.1842115    27.956552 
    7140   0.96327302    -1314.416   -2.4713782    21853.503    3.1836965    27.958059 
    7150   0.96590426   -1314.4075   -7.5420753    21856.954    3.1831938    27.959531 
    7160   0.96887642   -1314.3995   -12.243005    21860.157    3.1827274    27.960896 
    7170    0.9721795    -1314.392     -16.3451    21862.957    3.1823197     27.96209 
    7180   0.97579764   -1314.3852   -19.649481    21865.222    3.1819901    27.963056 
    7190   0.97970923   -1314.3793   -21.996727    21866.843    3.1817542    27.963747 
    7200   0.98388703   -1314.3742   -23.274191    21867.744    3.1816231    27.964131 
    7210   0.98829825     -1314.37   -23.421093    21867.884    3.1816028    27.964191 
    7220   0.99290477   -1314.3669   -22.431227    21867.258    3.1816938    27.963924 
    7230    0.9976632   -1314.3646   -20.353186      21865.9    3.1818915    27.963345 
    7240     1.002525   -1314.3631   -17.288123    21863.878    3.1821858    27.962483 
    7250    1.0074368   -1314.3623     -13.3851    21861.293     3.182562    27.961381 
    7260    1.0123402   -1314.3619   -8.8341976    21858.273    3.1830017    27.960093 
    7270    1.0171719    -1314.362   -3.8576237    21854.969     3.183483    27.958684 
    7280    1.0218644   -1314.3624     1.300832    21851.541    3.1839823    27.957223 
    7290    1.0263455   -1314.3631    6.3875607     21848.16     3.184475    27.955781 
    7300    1.0305388   -1314.3641    11.151586    21844.991     3.184937    27.954429 
    7310    1.0343641   -1314.3653    15.357096    21842.189    3.1853455    27.953234 
    7320    1.0377378   -1314.3669    18.795405    21839.891    3.1856807    27.952253 
    7330    1.0405728   -1314.3689     21.29569    21838.208    3.1859263    27.951535 
    7340    1.0427805   -1314.3714    22.733867    21837.221    3.1860703    27.951114 
    7350     1.044271   -1314.3744    23.039091    21836.976     3.186106    27.951009 
    7360    1.0449563   -1314.3779     22.19746    21837.482    3.1860322    27.951225 
    7370    1.0447539   -1314.3818    20.252715    21838.712    3.1858528     27.95175 
    7380     1.043593    -1314.386    17.303869    21840.601    3.1855772    27.952556 
    7390    1.0414239   -1314.3903    13.499952    21843.053    3.1852196    27.953602 
    7400    1.0382305   -1314.3946    9.0321717    21845.944    3.1847981    27.954835 
    7410    1.0340461   -1314.3988    4.1240032    21849.128     3.184334    27.956193 
    7420     1.028968   -1314.4029  -0.98023603    21852.444    3.1838508    27.957608 
    7430    1.0231678   -1314.4067   -6.0276798    21855.726    3.1833727    27.959007 
    7440    1.0168889   -1314.4104    -10.76944    21858.809    3.1829237    27.960322 
    7450    1.0104278   -1314.4139   -14.972749    21861.538    3.1825263    27.961485 
    7460     1.004099   -1314.4174   -18.432153    21863.776    3.1822006    27.962439 
    7470   0.99819353   -1314.4209   -20.979246     21865.41    3.1819627    27.963136 
    7480   0.99294199   -1314.4246   -22.490521    21866.358    3.1818249     27.96354 
    7490   0.98849341   -1314.4284   -22.893026    21866.569     3.181794     27.96363 
    7500   0.98491243   -1314.4324   -22.167628    21866.033    3.1818721    27.963402 
    7510   0.98219086   -1314.4365   -20.349783    21864.773    3.1820555    27.962864 
    7520   0.98026622   -1314.4406   -17.527827    21862.849    3.1823355    27.962044 
    7530   0.97904122   -1314.4445   -13.838853    21860.355    3.1826986    27.960981 
    7540   0.97839999    -1314.448   -9.4623389    21857.411    3.1831272    27.959726 
    7550   0.97822005   -1314.4511   -4.6117362    21854.162    3.1836005     27.95834 
    7560   0.97838018   -1314.4535   0.47564216    21850.766    3.1840953    27.956892 
    7570   0.97876517   -1314.4552    5.5500394    21847.389    3.1845875    27.955452 
    7580   0.97926864   -1314.4562    10.361469    21844.197    3.1850528     27.95409 
    7590   0.97979463   -1314.4564    14.672146    21841.346    3.1854685    27.952874 
    7600   0.98025865   -1314.4559    18.268495    21838.977     3.185814    27.951863 
    7610   0.98058842   -1314.4548    20.972097    21837.206    3.1860724    27.951108 
    7620   0.98072462    -1314.453    22.648924    21836.121    3.1862307    27.950645 
    7630   0.98062146   -1314.4507    23.216336    21835.775    3.1862812    27.950497 
    7640    0.9802473   -1314.4477    22.647397    21836.186    3.1862212    27.950673 
    7650   0.97958498   -1314.4441    20.972237    21837.336    3.1860535    27.951163 
    7660   0.97863202   -1314.4397    18.276394    21839.168    3.1857862    27.951945 
    7670   0.97740036   -1314.4345    14.696215    21841.595    3.1854322     27.95298 
    7680   0.97591574   -1314.4283    10.411639    21844.499    3.1850087    27.954219 
    7690   0.97421643    -1314.421     5.636777    21847.741     3.184536    27.955602 
    7700   0.97235109   -1314.4127   0.60887307    21851.165    3.1840371    27.957062 
    7710   0.97037575   -1314.4032   -4.4237306    21854.607    3.1835357     27.95853 
    7720    0.9683493   -1314.3926   -9.2139728    21857.901    3.1830559    27.959935 
    7730   0.96632736   -1314.3812   -13.528163    21860.892    3.1826203     27.96121 
    7740    0.9643543   -1314.3689    -17.15721    21863.439    3.1822496    27.962296 
    7750   0.96245359    -1314.356   -19.926493    21865.424    3.1819607    27.963142 
    7760   0.96061756   -1314.3427   -21.703976    21866.756    3.1817669     27.96371 
    7770   0.95879904   -1314.3291   -22.406253    21867.377    3.1816765    27.963975 
    7780    0.9569089   -1314.3154   -22.002304    21867.266    3.1816927    27.963927 
    7790   0.95482446   -1314.3015   -20.514819    21866.436    3.1818134    27.963573 
    7800    0.9524129   -1314.2877   -18.019036    21864.937    3.1820316    27.962934 
    7810   0.94956894   -1314.2738   -14.639146     21862.85    3.1823353    27.962045 
    7820   0.94625808   -1314.2599   -10.542388    21860.288    3.1827084    27.960952 
    7830   0.94254854   -1314.2461    -5.931114    21857.384    3.1831312    27.959714 
    7840   0.93861505   -1314.2325    -1.033174     21854.29    3.1835819    27.958395 
    7850   0.93471145    -1314.219    3.9089836    21851.165    3.1840371    27.957062 
    7860   0.93112748   -1314.2059    8.6500518    21848.172    3.1844733    27.955786 
    7870   0.92815015   -1314.1934    12.953954    21845.464     3.184868    27.954631 
    7880   0.92603906   -1314.1816    16.605697    21843.182    3.1852007    27.953657 
    7890   0.92501326   -1314.1709    19.422351    21841.444    3.1854542    27.952916 
    7900   0.92524372   -1314.1613    21.262507    21840.341    3.1856151    27.952445 
    7910   0.92684773   -1314.1531    22.033649    21839.933    3.1856746    27.952271 
    7920   0.92988427   -1314.1464    21.696994    21840.244    3.1856293    27.952404 
    7930   0.93435194   -1314.1411    20.269499    21841.261    3.1854809    27.952838 
    7940   0.94019121   -1314.1374    17.822911    21842.939    3.1852361    27.953554 
    7950   0.94729269   -1314.1351    14.479946    21845.197    3.1849069    27.954517 
    7960   0.95551075   -1314.1342    10.407818    21847.926    3.1845092    27.955681 
    7970   0.96467994   -1314.1346    5.8095262    21850.992    3.1840623    27.956988 
    7980   0.97463006   -1314.1362   0.91340444    21854.245    3.1835883    27.958376 
    7990   0.98519656    -1314.139   -4.0384724    21857.526    3.1831105    27.959775 
    8000   0.99622457   -1314.1429   -8.8023893    21860.672    3.1826524    27.961116 
    8010    1.0075675    -1314.148   -13.144974    21863.528    3.1822366    27.962334 
    8020    1.0190822   -1314.1543   -16.854471    21865.953    3.1818838    27.963367 
    8030    1.0306222   -1314.1618   -19.750804    21867.824    3.1816115    27.964165 
    8040    1.0420322   -1314.1707   -21.693987    21869.049    3.1814333    27.964687 
    8050    1.0531424    -1314.181   -22.590578    21869.563    3.1813585    27.964906 
    8060    1.0637651   -1314.1926   -22.397934    21869.338    3.1813912    27.964811 
    8070    1.0736917   -1314.2054   -21.126125    21868.382    3.1815303    27.964403 
    8080    1.0826936   -1314.2194   -18.837447    21866.736    3.1817698    27.963701 
    8090    1.0905268   -1314.2344   -15.643545    21864.477    3.1820986    27.962738 
    8100    1.0969457   -1314.2503   -11.700228    21861.709    3.1825015    27.961558 
    8110     1.101733    -1314.267   -7.2001391    21858.562    3.1829596    27.960216 
    8120    1.1047518   -1314.2842   -2.3635343    21855.184    3.1834517    27.958776 
    8130    1.1060198    -1314.302     2.572462    21851.732    3.1839545    27.957304 
    8140    1.1057867   -1314.3202    7.3656048    21848.369    3.1844446     27.95587 
    8150    1.1045665    -1314.339    11.780588     21845.25    3.1848992    27.954539 
    8160    1.1030653   -1314.3584    15.600645    21842.519    3.1852975    27.953374 
    8170    1.1019995   -1314.3785    18.638068      21840.3    3.1856211    27.952428 
    8180    1.1018886   -1314.3993    20.743313    21838.691    3.1858558    27.951741 
    8190    1.1029388    -1314.421    21.812506    21837.761    3.1859915    27.951344 
    8200    1.1050652   -1314.4435    21.793012    21837.542    3.1860234    27.951251 
    8210    1.1079984   -1314.4669    20.686555    21838.034    3.1859516    27.951461 
    8220    1.1113976   -1314.4909    18.549429    21839.201    3.1857815    27.951959 
    8230     1.114931   -1314.5156    15.489714    21840.971    3.1855233    27.952714 
    8240    1.1183201   -1314.5406    11.661642    21843.245    3.1851917    27.953684 
    8250    1.1213597   -1314.5659    7.2575369    21845.897    3.1848049    27.954815 
    8260    1.1239234   -1314.5913    2.4978337    21848.784    3.1843841    27.956047 
    8270    1.1259573   -1314.6166   -2.3802204     21851.75    3.1839519    27.957312 
    8280    1.1274641   -1314.6417   -7.1345496    21854.636    3.1835314    27.958542 
    8290    1.1284799   -1314.6667   -11.530278    21857.287    3.1831453    27.959673 
    8300    1.1290506   -1314.6914   -15.351193    21859.559    3.1828145    27.960641 
    8310    1.1292116    -1314.716   -18.410103    21861.328     3.182557    27.961396 
    8320    1.1289775   -1314.7403   -20.557631    21862.494    3.1823872    27.961893 
    8330    1.1283405   -1314.7644   -21.689121    21862.987    3.1823154    27.962103 
    8340    1.1272759   -1314.7883    -21.74938    21862.772    3.1823468    27.962011 
    8350    1.1257511   -1314.8118   -20.735148    21861.846    3.1824815    27.961617 
    8360    1.1237329   -1314.8349   -18.695183    21860.244    3.1827147    27.960934 
    8370    1.1211946   -1314.8573   -15.728005    21858.034    3.1830365    27.959991 
    8380    1.1181187   -1314.8789   -11.977349    21855.313    3.1834328    27.958831 
    8390    1.1144983   -1314.8996   -7.6254902    21852.205    3.1838856    27.957506 
    8400    1.1103364   -1314.9193   -2.8846956    21848.851    3.1843743    27.956075 
    8410     1.105645   -1314.9377    2.0128845    21845.408    3.1848762    27.954607 
    8420    1.1004438   -1314.9549    6.8264458    21842.035    3.1853681    27.953168 
    8430    1.0947595   -1314.9709    11.318376    21838.888     3.185827    27.951825 
    8440    1.0886247   -1314.9857    15.266135    21836.115    3.1862317    27.950642 
    8450    1.0820781   -1314.9994    18.473557    21833.842    3.1865633    27.949672 
    8460    1.0751637   -1315.0122    20.780936    21832.175    3.1868067    27.948961 
    8470    1.0679309   -1315.0241    22.073332    21831.186     3.186951    27.948539 
    8480    1.0604341   -1315.0353     22.28658    21830.918    3.1869902    27.948424 
    8490    1.0527315   -1315.0456    21.410654    21831.376    3.1869233     27.94862 
    8500    1.0448855   -1315.0552    19.490155    21832.531    3.1867546    27.949113 
    8510    1.0369608   -1315.0641    16.621913    21834.321    3.1864934    27.949877 
    8520    1.0290244   -1315.0721    12.949844    21836.651    3.1861534    27.950871 
    8530     1.021144   -1315.0792     8.657393    21839.401    3.1857523    27.952044 
    8540    1.0133874   -1315.0855    3.9580078    21842.431    3.1853103    27.953337 
    8550    1.0058219   -1315.0908  -0.91577865    21845.587    3.1848501    27.954683 
    8560   0.99851292   -1315.0953    -5.724056    21848.711    3.1843948    27.956015 
    8570   0.99152365   -1315.0991   -10.231405    21851.645    3.1839671    27.957267 
    8580    0.9849145   -1315.1022   -14.218334    21854.243    3.1835886    27.958375 
    8590   0.97874248   -1315.1049   -17.491751    21856.375    3.1832782    27.959284 
    8600   0.97306095   -1315.1072   -19.894013    21857.933    3.1830512    27.959948 
    8610    0.9679193   -1315.1093   -21.310203    21858.841    3.1829191    27.960335 
    8620   0.96336279   -1315.1113   -21.673347    21859.051    3.1828884    27.960425 
    8630   0.95943237   -1315.1133   -20.967413    21858.554    3.1829608    27.960213 
    8640   0.95616451   -1315.1151   -19.227968    21857.373    3.1831328     27.95971 
    8650   0.95359089   -1315.1168   -16.540503    21855.566     3.183396    27.958939 
    8660   0.95173792   -1315.1184   -13.036465    21853.221    3.1837376    27.957939 
    8670   0.95062595   -1315.1196   -8.8871398    21850.453    3.1841408    27.956759 
    8680   0.95026807   -1315.1204   -4.2956161      21847.4    3.1845859    27.955456 
    8690   0.95066836   -1315.1207   0.51286256     21844.21    3.1850509    27.954096 
    8700   0.95181956   -1315.1205    5.3017573     21841.04    3.1855131    27.952744 
    8710   0.95370018   -1315.1198    9.8348158    21838.048    3.1859495    27.951467 
    8720   0.95627115   -1315.1186     13.88782    21835.381    3.1863388    27.950329 
    8730   0.95947256   -1315.1169    17.259901    21833.169    3.1866616    27.949385 
    8740   0.96322106   -1315.1149    19.783802    21831.522    3.1869019    27.948683 
    8750   0.96740865   -1315.1125    21.334518    21830.522    3.1870479    27.948256 
    8760    0.9719039   -1315.1097    21.835787    21830.219    3.1870922    27.948126 
    8770   0.97655598   -1315.1066    21.264059    21830.627    3.1870326      27.9483 
    8780    0.9812015   -1315.1031     19.64968    21831.727     3.186872     27.94877 
    8790    0.9856735   -1315.0989    17.075233    21833.467    3.1866181    27.949512 
    8800    0.9898112   -1315.0941    13.671127    21835.762    3.1862832    27.950491 
    8810   0.99346908   -1315.0885    9.6087203      21838.5    3.1858837     27.95166 
    8820   0.99652403   -1315.0819     5.091382    21841.548     3.185439     27.95296 
    8830   0.99887989   -1315.0742   0.34403218     21844.76    3.1849706    27.954331 
    8840    1.0004694   -1315.0655   -4.3982501    21847.981    3.1845011    27.955704 
    8850    1.0012542   -1315.0557   -8.9019329    21851.055    3.1840531    27.957015 
    8860    1.0012229   -1315.0449   -12.946454    21853.836     3.183648    27.958201 
    8870    1.0003885   -1315.0332   -16.334817    21856.191    3.1833049    27.959206 
    8880   0.99878558   -1315.0206   -18.902883    21858.011    3.1830398    27.959982 
    8890   0.99646703   -1315.0074   -20.526999    21859.212    3.1828649    27.960494 
    8900   0.99350061   -1314.9934   -21.129643    21859.742    3.1827878     27.96072 
    8910   0.98996578   -1314.9789   -20.682914    21859.581    3.1828112    27.960651 
    8920   0.98595029   -1314.9638   -19.209739    21858.745     3.182933    27.960295 
    8930   0.98154655   -1314.9481   -16.782757    21857.283    3.1831459    27.959671 
    8940   0.97684784   -1314.9317   -13.520939    21855.275    3.1834383    27.958815 
    8950   0.97194415   -1314.9146    -9.584043    21852.828    3.1837947    27.957772 
    8960   0.96691772   -1314.8967   -5.1651217    21850.072    3.1841963    27.956596 
    8970   0.96183853   -1314.8779  -0.48136729    21847.151     3.184622     27.95535 
    8980   0.95675983   -1314.8584    4.2363347    21844.219    3.1850496    27.954099 
[...]
   37860    116.65316   -1044.2134    9881.0155    19347.524    3.5960632    26.845725 
   37870    117.56402   -1044.9033    9873.5606    19347.607    3.5960479    26.845763 
   37880    118.47831    -1045.445    9867.7533    19347.662    3.5960376    26.845789 
   37890    119.30673   -1045.6572    9865.5858    19347.689    3.5960325    26.845801 
   37900    119.97213   -1045.6215     9867.073    19347.688    3.5960328      26.8458 
   37910     120.4259   -1045.4342    9871.8761    19347.658    3.5960383    26.845787 
   37920    120.65462   -1044.8455    9881.7497    19347.602    3.5960488    26.845761 
   37930    120.68041   -1043.9462    9895.7768     19347.52    3.5960639    26.845723 
   37940    120.55398   -1043.0108    9911.5275    19347.417    3.5960831    26.845675 
   37950    120.34365   -1041.9656    9928.8442    19347.296    3.5961057    26.845619 
   37960    120.12125   -1040.6409    9948.1756     19347.16     3.596131    26.845556 
   37970     119.9592   -1039.4315    9966.0754    19347.013    3.5961582    26.845488 
   37980    119.91985   -1038.5465    9980.4681     19346.86    3.5961866    26.845418 
   37990    120.05507   -1038.0097    9990.7152    19346.704    3.5962157    26.845345 
   38000    120.39353   -1037.5447    9998.4598    19346.546     3.596245    26.845272 
   38010    120.93456   -1037.3771    10002.127    19346.389    3.5962743      26.8452 
   38020    121.64157    -1037.758    10000.296    19346.232    3.5963033    26.845127 
   38030    122.44128   -1038.1516    9997.3362    19346.077    3.5963323    26.845055 
   38040    123.23436   -1038.5255    9994.3441    19345.921    3.5963611    26.844983 
   38050    123.91505   -1038.7394    9993.2098    19345.766    3.5963901    26.844911 
   38060    124.39701   -1038.7759    9994.8178     19345.61    3.5964191    26.844839 
   38070    124.63176   -1038.5436     10000.26    19345.453    3.5964482    26.844767 
   38080    124.61111   -1038.0027     10009.86    19345.298    3.5964771    26.844695 
   38090    124.38047   -1037.0847    10023.764    19345.145    3.5965055    26.844624 
   38100    124.02412   -1036.0403    10039.557    19344.998    3.5965328    26.844556 
   38110      123.653    -1034.906    10056.085    19344.861    3.5965583    26.844493 
   38120    123.39028      -1034.1    10069.522    19344.736    3.5965816    26.844435 
   38130    123.33926   -1033.4237    10080.495    19344.627    3.5966019    26.844384 
   38140    123.55789   -1033.0922    10087.097    19344.535    3.5966189    26.844342 
   38150    124.04008   -1033.0296    10089.876    19344.463    3.5966324    26.844309 
   38160    124.71673   -1033.3641    10088.347     19344.41    3.5966422    26.844284 
   38170    125.47226    -1033.756    10085.539    19344.376    3.5966485    26.844269 
   38180    126.18011   -1033.9051    10084.294    19344.361    3.5966512    26.844262 
   38190    126.72921   -1034.3159    10081.753    19344.364    3.5966506    26.844263 
   38200    127.04108   -1034.3515    10082.736    19344.385    3.5966467    26.844273 
   38210    127.07916   -1034.1847    10086.133    19344.424    3.5966395    26.844291 
   38220     126.8423   -1033.9537    10090.814    19344.481    3.5966289    26.844317 
   38230    126.35847     -1033.36    10098.524    19344.558    3.5966146    26.844353 
   38240    125.66831   -1032.9727    10104.875    19344.656    3.5965965    26.844398 
   38250    124.82402   -1032.3361    10112.561    19344.776    3.5965742    26.844453 
   38260     123.8901   -1031.8399    10118.347    19344.919    3.5965474     26.84452 
   38270    122.94413   -1031.3712    10122.443    19345.088    3.5965161    26.844598 
   38280     122.0685   -1031.4597    10120.554    19345.282    3.5964799    26.844688 
   38290    121.34289   -1031.4529    10116.681    19345.502    3.5964391    26.844789 
   38300    120.82591   -1032.0466    10105.631    19345.746    3.5963938    26.844902 
   38310    120.54368   -1033.0354    10088.779    19346.011    3.5963445    26.845025 
   38320    120.48352   -1034.3115    10067.168    19346.295    3.5962917    26.845156 
   38330    120.59687   -1035.7212    10042.468    19346.592    3.5962365    26.845293 
   38340    120.81125   -1037.4741    10014.041    19346.897    3.5961798    26.845435 
   38350    121.04545   -1039.2539    9984.9745    19347.204    3.5961227    26.845577 
   38360    121.22793   -1040.7104    9958.5576    19347.507    3.5960664    26.845717 
   38370    121.30285   -1042.2762    9932.4924      19347.8    3.5960119    26.845853 
   38380    121.23456    -1043.379    9911.2896    19348.078    3.5959602    26.845981 
   38390    121.00791   -1044.3576    9892.9581    19348.337    3.5959122      26.8461 
   38400     120.6193   -1045.0476    9878.8575    19348.571    3.5958687    26.846209 
   38410    120.07631   -1045.4946    9868.7899    19348.779      3.59583    26.846305 
   38420    119.39288   -1045.6774    9862.9377    19348.958    3.5957967    26.846388 
   38430    118.58658   -1045.4065    9862.5608    19349.108    3.5957689    26.846457 
   38440    117.68412   -1044.9475    9865.6359    19349.228    3.5957466    26.846513 
   38450    116.72559   -1044.3405    9871.5477    19349.319    3.5957296    26.846555 
   38460    115.76891    -1043.727    9878.7812    19349.383    3.5957178    26.846584 
   38470    114.88556   -1042.9756    9887.5027     19349.42    3.5957108    26.846602 
   38480    114.16386   -1042.4245    9894.4717    19349.434    3.5957083    26.846608 
   38490    113.69694   -1042.0047     9899.231    19349.425      3.59571    26.846604 
   38500     113.5665    -1042.027     9898.777    19349.395    3.5957156     26.84659 
   38510    113.83222    -1042.332    9893.6385    19349.343    3.5957252    26.846566 
   38520    114.51579    -1043.053    9882.6654    19349.269     3.595739    26.846532 
   38530    115.59758   -1044.2448    9865.6522     19349.17    3.5957574    26.846486 
   38540    117.02008   -1045.6682    9844.7862    19349.042    3.5957811    26.846427 
   38550    118.69632   -1047.3695     9820.539    19348.882    3.5958108    26.846353 
   38560    120.51737   -1049.3716    9793.7299    19348.685    3.5958475    26.846262 
   38570    122.35461   -1051.1124    9769.3612    19348.444    3.5958922     26.84615 
   38580    124.06551   -1052.8006    9747.1364    19348.155    3.5959459    26.846017 
   38590    125.50579   -1054.2996    9729.1535    19347.814    3.5960094    26.845859 
   38600    126.54156   -1055.2881    9718.6564    19347.416    3.5960833    26.845675 
   38610    127.07119   -1055.2868    9719.6964     19346.96    3.5961681    26.845464 
   38620    127.04019   -1054.9307    9728.1208    19346.446    3.5962637    26.845226 
   38630    126.45541   -1053.9735    9745.3516    19345.876    3.5963696    26.844962 
   38640    125.38781   -1052.4477    9770.3209    19345.254    3.5964852    26.844675 
   38650     123.9581   -1050.4735    9800.8897    19344.586    3.5966095    26.844366 
   38660    122.31553    -1048.599    9831.6737    19343.877    3.5967412    26.844038 
   38670    120.61524   -1046.5411    9863.0402    19343.136    3.5968791    26.843695 
   38680    118.99779   -1044.8528    9889.7472    19342.368    3.5970219     26.84334 
   38690    117.56766   -1043.6144    9910.1868    19341.579    3.5971686    26.842975 
   38700    116.38995   -1042.7734    9924.1024    19340.774    3.5973183    26.842602 
   38710    115.49536   -1042.4223    9930.6629    19339.956    3.5974704    26.842224 
   38720    114.88528   -1042.5613    9930.0586    19339.127    3.5976247     26.84184 
   38730    114.53676   -1042.9106    9924.7309    19338.285    3.5977813    26.841451 
   38740    114.40698    -1043.557    9914.7868    19337.431    3.5979402    26.841056 
   38750     114.4391   -1044.3492    9902.1265    19336.562    3.5981019    26.840653 
   38760    114.57019   -1045.2045    9888.2345    19335.675     3.598267    26.840243 
   38770    114.73632   -1046.0918    9874.2273    19334.768    3.5984358    26.839823 
   38780    114.88082    -1047.066    9860.5514    19333.837     3.598609    26.839393 
   38790    114.95558   -1047.6561    9851.1807    19332.881     3.598787     26.83895 
   38800    114.92752   -1048.1491    9844.6325    19331.896    3.5989703    26.838494 
   38810    114.78598    -1048.421    9842.0819    19330.882    3.5991591    26.838025 
   38820    114.54154   -1047.8855    9847.6852    19329.839    3.5993534    26.837542 
   38830    114.22695   -1047.5824    9854.0293    19328.766     3.599553    26.837046 
   38840     113.8986   -1047.1095    9863.5264    19327.667    3.5997577    26.836538 
   38850    113.63138   -1046.5309    9875.1995    19326.544    3.5999671    26.836017 
   38860    113.50415   -1046.0376    9887.1606    19325.397    3.6001806    26.835487 
   38870     113.5812   -1045.5032     9899.829    19324.231    3.6003978    26.834947 
   38880     113.9023   -1044.9636    9912.7232    19323.049    3.6006182      26.8344 
   38890    114.47377   -1044.6558     9924.232    19321.852    3.6008412    26.833845 
   38900    115.27055   -1044.5856    9934.5993    19320.643    3.6010665    26.833286 
   38910    116.23125   -1044.5274    9945.7808    19319.425    3.6012935    26.832722 
   38920    117.27417   -1044.2511    9959.7425      19318.2    3.6015218    26.832155 
   38930     118.3096   -1043.9349    9975.4398    19316.972    3.6017509    26.831586 
   38940    119.25541   -1043.2487    9995.0966    19315.742    3.6019801    26.831017 
   38950    120.05566    -1042.472    10016.381    19314.517    3.6022087     26.83045 
   38960    120.69517   -1041.6386    10038.391      19313.3    3.6024357    26.829886 
   38970    121.19969    -1040.746    10060.284    19312.095    3.6026604    26.829328 
   38980    121.62239   -1039.6334    10082.279    19310.908    3.6028819    26.828778 
   38990    122.02288   -1038.8895    10099.523    19309.743    3.6030993    26.828239 
   39000    122.44744   -1038.3323    10112.802    19308.603     3.603312    26.827711 
   39010    122.92371    -1038.041     10121.36    19307.492    3.6035194    26.827196 
   39020    123.46621   -1037.9531    10125.611     19306.41    3.6037212    26.826695 
   39030    124.08389   -1038.3936    10123.366     19305.36    3.6039173    26.826209 
   39040    124.77716   -1038.9924    10117.358    19304.339    3.6041078    26.825736 
   39050     125.5313   -1039.6823    10108.364    19303.348    3.6042929    26.825277 
   39060    126.30462   -1040.7543    10094.874    19302.383    3.6044731     26.82483 
   39070    127.02728   -1041.8972    10079.817    19301.442    3.6046488    26.824394 
   39080    127.60238   -1042.9329    10065.389    19300.522    3.6048206    26.823968 
   39090     127.9219   -1044.0815    10051.135    19299.619    3.6049893     26.82355 
   39100    127.88199   -1044.7502    10042.287    19298.731    3.6051552    26.823138 
   39110    127.39795   -1045.0237    10039.222    19297.855    3.6053188    26.822732 
   39120    126.42555   -1044.7316    10043.824    19296.991    3.6054803    26.822332 
   39130    124.97819   -1043.7909    10056.967     19296.14    3.6056393    26.821937 
   39140    123.13228   -1042.3404     10077.49    19295.304    3.6057955     26.82155 
   39150    121.02074   -1040.4446    10104.243    19294.488    3.6059479    26.821172 
   39160    118.81112   -1038.2472    10135.094    19293.698    3.6060957    26.820806 
   39170     116.6864   -1036.0276    10166.721    19292.939    3.6062375    26.820454 
   39180     114.8124   -1033.9139    10196.798    19292.219    3.6063721    26.820121 
   39190    113.31987   -1032.2252    10221.819    19291.543    3.6064985    26.819807 
   39200    112.29826   -1031.0157    10240.441    19290.917    3.6066156    26.819517 
   39210     111.7918   -1030.1865    10252.753    19290.344    3.6067226    26.819252 
   39220    111.80329    -1030.077    10256.139    19289.827    3.6068193    26.819012 
   39230    112.30768   -1030.4751    10252.142    19289.366    3.6069055    26.818799 
   39240    113.25758   -1031.3137    10241.556    19288.961    3.6069813    26.818611 
   39250    114.57944    -1032.518    10225.461    19288.608    3.6070472    26.818447 
   39260    116.17181   -1034.1503    10204.222    19288.305    3.6071039    26.818307 
   39270    117.90476   -1035.9172     10180.92    19288.046    3.6071523    26.818187 
   39280    119.62969   -1037.7956    10156.919    19287.827    3.6071933    26.818085 
   39290     121.1969   -1039.5136    10135.318    19287.642    3.6072278       26.818 
   39300     122.4819   -1040.9286    10118.122    19287.487    3.6072568    26.817928 
   39310    123.39994   -1041.7004    10108.346    19287.358     3.607281    26.817868 
   39320    123.91774   -1042.0438    10104.702    19287.252    3.6073007    26.817819 
   39330    124.05289    -1041.916    10107.307     19287.17    3.6073162    26.817781 
   39340    123.85368   -1041.4805    10114.514     19287.11    3.6073273    26.817753 
   39350    123.38951   -1040.7508    10125.578    19287.076    3.6073338    26.817737 
   39360    122.73431   -1039.9133    10138.522    19287.068    3.6073352    26.817734 
   39370    121.95742   -1038.9721      10152.7     19287.09    3.6073311    26.817744 
   39380    121.12107   -1037.9936    10167.095    19287.145    3.6073208    26.817769 
   39390    120.28608   -1036.9685    10181.252    19287.235     3.607304    26.817811 
   39400    119.51606   -1035.9188    10194.502    19287.364    3.6072799    26.817871 
   39410    118.87421   -1035.1148    10204.446    19287.533    3.6072482    26.817949 
   39420    118.41571   -1034.7703    10209.128    19287.746    3.6072085    26.818048 
   39430    118.18316   -1034.6683    10209.743    19288.002    3.6071606    26.818166 
   39440     118.1955   -1034.6856    10207.051    19288.302    3.6071045    26.818305 
   39450    118.44017   -1035.2473    10198.249    19288.645    3.6070404    26.818464 
   39460    118.87679   -1035.8341    10187.409    19289.029    3.6069685    26.818642 
   39470    119.43908   -1036.7524    10173.062    19289.452    3.6068895    26.818838 
   39480    120.04452   -1037.5256     10159.32     19289.91    3.6068038    26.819051 
   39490    120.61208   -1038.2457    10146.338      19290.4    3.6067121    26.819278 
   39500    121.06806   -1038.9909    10134.229    19290.921    3.6066148    26.819519 
   39510     121.3611   -1039.4523    10125.597    19291.468    3.6065125    26.819773 
   39520    121.46862   -1039.6562    10120.443     19292.04    3.6064056    26.820038 
   39530    121.39426   -1039.5676    10118.887    19292.636    3.6062942    26.820314 
   39540     121.1691   -1039.5592    10117.917    19293.255    3.6061784    26.820601 
   39550    120.84583   -1039.3993    10118.493    19293.898    3.6060583    26.820899 
   39560    120.48453   -1039.1909    10119.075    19294.564    3.6059338    26.821207 
   39570    120.14285   -1039.2125    10116.871    19295.253    3.6058051    26.821526 
   39580     119.8622   -1039.3803    10111.714    19295.964    3.6056721    26.821856 
   39590    119.66088   -1039.8479    10102.032    19296.697    3.6055352    26.822196 
   39600    119.53048   -1040.6719    10087.255    19297.449    3.6053946    26.822544 
   39610    119.44388   -1041.5466    10069.715    19298.218    3.6052511      26.8229 
   39620    119.36013   -1042.5954    10049.058    19298.998    3.6051052    26.823262 
   39630    119.23608   -1043.8976    10025.437    19299.787     3.604958    26.823627 
   39640    119.03593   -1045.0409    10002.493    19300.578    3.6048101    26.823994 
   39650    118.73796   -1046.2165     9979.603    19301.368    3.6046627    26.824359 
   39660    118.33533   -1047.1456    9959.2801     19302.15    3.6045166    26.824722 
   39670    117.83927   -1047.9481    9941.0903    19302.921    3.6043726    26.825079 
   39680    117.27178   -1048.5445    9925.8021    19303.678    3.6042313     26.82543 
   39690    116.66094   -1049.0445    9912.7054    19304.416    3.6040935    26.825772 
   39700    116.04178   -1049.4277    9901.9047    19305.133    3.6039596    26.826104 
   39710    115.44709   -1049.6041     9893.954    19305.828      3.60383    26.826425 
   39720    114.89887   -1049.5952     9888.643    19306.497     3.603705    26.826735 
   39730    114.40856   -1049.6312     9884.375    19307.141    3.6035849    26.827034 
   39740    113.97364   -1049.6528      9881.64    19307.758    3.6034697    26.827319 
   39750    113.58593   -1049.3471     9882.772    19308.348    3.6033596    26.827593 
   39760    113.23303   -1049.0813    9885.3739    19308.911    3.6032546    26.827853 
   39770    112.90596   -1048.5378    9891.7511    19309.448    3.6031544    26.828102 
   39780    112.61254   -1048.1098    9899.1124     19309.96    3.6030588    26.828339 
   39790     112.3834   -1047.5096    9909.1889    19310.449    3.6029675    26.828566 
   39800     112.2747   -1046.7336    9921.5076    19310.918    3.6028801    26.828783 
   39810    112.35615   -1046.0708    9933.3704    19311.368     3.602796    26.828991 
   39820    112.69575   -1045.6201    9943.3566    19311.803    3.6027149    26.829193 
   39830    113.33823   -1045.2636    9951.6683    19312.224    3.6026363    26.829388 
   39840    114.28377   -1045.0843    9957.3583    19312.634    3.6025599    26.829578 
   39850     115.4805   -1045.1608    9959.8371    19313.033    3.6024854    26.829763 
   39860    116.83021   -1045.3757    9960.1755    19313.423    3.6024127    26.829943 
   39870    118.20809   -1045.7526    9958.6355    19313.803    3.6023419    26.830119 
   39880    119.49746   -1046.0488    9957.3714    19314.173    3.6022729     26.83029 
   39890    120.61341   -1046.5156    9954.9923    19314.532    3.6022058    26.830457 
   39900    121.51628   -1046.5119    9956.1482    19314.882    3.6021406    26.830619 
   39910    122.20389   -1046.4132    9958.2279    19315.221    3.6020774    26.830775 
   39920     122.7015   -1046.3244    9960.4168     19315.55     3.602016    26.830928 
   39930     123.0367   -1046.0516    9963.9748     19315.87    3.6019564    26.831076 
   39940    123.22818   -1045.7775    9967.6264    19316.181    3.6018984     26.83122 
   39950    123.28271   -1045.3717    9972.4151    19316.484    3.6018418     26.83136 
   39960    123.19077   -1044.9515    9977.7688    19316.781    3.6017865    26.831498 
   39970    122.93602   -1044.4517    9984.4432    19317.072    3.6017322    26.831633 
   39980    122.50356   -1043.6612    9994.1958    19317.359    3.6016787    26.831765 
   39990    121.88886   -1042.8496    10005.358    19317.644    3.6016256    26.831897 
   40000    121.10172   -1041.7884    10019.582    19317.929    3.6015723     26.83203 
Loop time of 6.59574 on 1 procs for 20000 steps with 500 atoms

Performance: 261.987 ns/day, 0.092 hours/ns, 3032.258 timesteps/s
80.2% CPU use with 1 MPI tasks x no OpenMP threads

MPI task timing breakdown:
Section |  min time  |  avg time  |  max time  |%varavg| %total
---------------------------------------------------------------
Pair    | 5.5505     | 5.5505     | 5.5505     |   0.0 | 84.15
Neigh   | 0.13622    | 0.13622    | 0.13622    |   0.0 |  2.07
Comm    | 0.2051     | 0.2051     | 0.2051     |   0.0 |  3.11
Output  | 0.036293   | 0.036293   | 0.036293   |   0.0 |  0.55
Modify  | 0.58975    | 0.58975    | 0.58975    |   0.0 |  8.94
Other   |            | 0.07793    |            |       |  1.18

Nlocal:    500 ave 500 max 500 min
Histogram: 1 0 0 0 0 0 0 0 0 0
Nghost:    1437 ave 1437 max 1437 min
Histogram: 1 0 0 0 0 0 0 0 0 0
Neighs:    13503 ave 13503 max 13503 min
Histogram: 1 0 0 0 0 0 0 0 0 0

Total # of neighbors = 13503
Ave neighs/atom = 27.006
Neighbor list builds = 164
Dangerous builds = 0
Total wall time: 0:00:12
