LAMMPS (7 Aug 2019)
Reading data file ...
  orthogonal box = (-1.4719 -1.4719 -1.4719) to (26.4719 26.4719 26.4719)
  1 by 1 by 1 MPI processor grid
  reading atoms ...
  500 atoms
  reading velocities ...
  500 velocities
  read_data CPU = 0.00215101 secs
Neighbor list info ...
  update every 1 steps, delay 10 steps, check yes
  max neighbors/atom: 2000, page size: 100000
  master list distance cutoff = 8
  ghost atom cutoff = 8
  binsize = 4, bins = 7 7 7
  1 neighbor lists, perpetual/occasional/extra = 1 0 0
  (1) pair lj/cut, perpetual
      attributes: half, newton on
      pair build: half/bin/atomonly/newton
      stencil: half/bin/3d/newton
      bin: standard
Setting up Verlet run ...
  Unit style    : real
  Current step  : 0
  Time step     : 1
Per MPI rank memory allocation (min/avg/max) = 3.998 | 3.998 | 3.998 Mbytes
Step Temp PotEng Press Volume Density Lx 
       0   0.94924373   -1315.7856    26.487323    21820.062    3.1885758    27.943791 
      10   0.94790998   -1315.7831    25.667464    21820.625    3.1884935    27.944031 
      20   0.94686998   -1315.7799     23.20396    21822.278     3.188252    27.944737 
      30   0.94617754   -1315.7759    19.258841    21824.918    3.1878663    27.945864 
      40    0.9458995    -1315.771    14.090842    21828.376    3.1873612     27.94734 
      50    0.9461068   -1315.7648     8.037532    21832.435    3.1867687    27.949072 
      60   0.94685863   -1315.7573    1.4923025    21836.837    3.1861263     27.95095 
      70   0.94817738   -1315.7484   -5.1219729    21841.303    3.1854748    27.952856 
      80   0.95001521   -1315.7382   -11.380695    21845.553    3.1848551    27.954668 
      90   0.95221889   -1315.7269   -16.884787    21849.319    3.1843062    27.956275 
     100   0.95450863   -1315.7145   -21.285694    21852.366    3.1838621    27.957574 
     110   0.95649199   -1315.7014   -24.306648    21854.508    3.1835501    27.958488 
     120   0.95772581   -1315.6878   -25.759077    21855.614     3.183389    27.958959 
     130   0.95781404   -1315.6737    -25.55345    21855.623    3.1833877    27.958963 
     140   0.95650321   -1315.6593   -23.704209    21854.543     3.183545    27.958503 
     150   0.95373282   -1315.6444   -20.328744    21852.454    3.1838493    27.957612 
     160   0.94962278   -1315.6288   -15.640504    21849.499    3.1842799    27.956352 
     170   0.94441484   -1315.6125   -9.9364948    21845.879    3.1848075    27.954808 
     180   0.93840388   -1315.5952   -3.5795676    21841.837    3.1853969    27.953084 
     190   0.93188667    -1315.577     3.023733    21837.644    3.1860085    27.951295 
     200   0.92513466   -1315.5578    9.4486376    21833.581    3.1866014    27.949561 
     210    0.9183835   -1315.5378    15.279434    21829.921    3.1871358    27.947999 
     220    0.9118288   -1315.5171    20.136789    21826.911    3.1875753    27.946714 
     230   0.90562216   -1315.4961    23.703183    21824.757    3.1878898    27.945795 
     240   0.89986503   -1315.4749    25.744566    21823.611    3.1880571    27.945306 
     250   0.89460186   -1315.4537    26.126512     21823.56    3.1880647    27.945284 
     260   0.88981631   -1315.4325    24.823573    21824.618    3.1879101    27.945736 
     270    0.8854353   -1315.4113    21.921055    21826.732    3.1876014    27.946638 
     280   0.88134455   -1315.3899    17.609074    21829.778    3.1871566    27.947938 
     290   0.87741471   -1315.3681    12.169409    21833.573    3.1866027    27.949557 
     300   0.87353105   -1315.3459     5.956217    21837.886    3.1859732    27.951398 
     310   0.86961695    -1315.323  -0.62785697    21842.454     3.185307    27.953346 
     320   0.86564348   -1315.2994   -7.1583736    21846.996    3.1846447    27.955284 
     330   0.86162427   -1315.2752   -13.216672    21851.234    3.1840271    27.957092 
     340    0.8576005   -1315.2505   -18.416477     21854.91    3.1834915    27.958659 
     350   0.85362294   -1315.2257   -22.427902    21857.802    3.1830703    27.959892 
     360   0.84973678   -1315.2008   -24.997521    21859.738    3.1827883    27.960718 
     370    0.8459718   -1315.1761   -25.963502    21860.609    3.1826615    27.961089 
     380   0.84233875   -1315.1516   -25.265142    21860.374    3.1826958    27.960989 
     390   0.83883076   -1315.1272   -22.946398    21859.061    3.1828869    27.960429 
     400   0.83542815   -1315.1028   -19.153296    21856.771    3.1832204    27.959453 
     410   0.83210454   -1315.0782   -14.125327    21853.666    3.1836727    27.958129 
     420   0.82883253   -1315.0531   -8.1811733     21849.96    3.1842128    27.956548 
     430   0.82558769   -1315.0274   -1.6994057    21845.906    3.1848036    27.954819 
     440   0.82235063   -1315.0011    4.9049104    21841.781    3.1854051     27.95306 
     450   0.81910739    -1314.974    11.206449    21837.866    3.1859761    27.951389 
     460   0.81584892   -1314.9463    16.797128     21834.43    3.1864776    27.949923 
     470   0.81257022   -1314.9183    21.313073    21831.708    3.1868748    27.948762 
     480   0.80926954   -1314.8901    24.459146    21829.893    3.1871398    27.947987 
     490   0.80594789   -1314.8619    26.029148    21829.118    3.1872529    27.947657 
     500   0.80260873   -1314.8337    25.920107     21829.45    3.1872044    27.947798 
     510    0.7992578   -1314.8057    24.139455    21830.885     3.186995     27.94841 
     520   0.79590277   -1314.7776     20.80449    21833.345    3.1866358     27.94946 
     530    0.7925529   -1314.7494    16.134173    21836.691    3.1861476    27.950888 
     540   0.78921846   -1314.7208    10.433947    21840.724    3.1855593    27.952608 
     550   0.78591015   -1314.6916    4.0748394    21845.201    3.1849064    27.954519 
     560   0.78263837   -1314.6619   -2.5315061    21849.853    3.1842283    27.956503 
     570   0.77941266   -1314.6315   -8.9599675    21854.398    3.1835661    27.958441 
     580   0.77624114   -1314.6006   -14.799355    21858.562    3.1829596    27.960216 
     590   0.77313016   -1314.5693   -19.678311    21862.096    3.1824451    27.961723 
     600   0.77008407    -1314.538   -23.288167    21864.791    3.1820529    27.962872 
     610   0.76710513   -1314.5067   -25.401558    21866.493    3.1818052    27.963598 
     620   0.76419366   -1314.4757   -25.885893    21867.112    3.1817151    27.963861 
     630    0.7613483    -1314.445   -24.711116    21866.627    3.1817857    27.963655 
     640    0.7585664   -1314.4145    -21.95143    21865.088    3.1820097    27.962999 
     650   0.75584454    -1314.384   -17.780939    21862.613    3.1823698    27.961944 
     660   0.75317917   -1314.3534   -12.463368    21859.381    3.1828403    27.960566 
     670   0.75056719   -1314.3224   -6.3362931    21855.619    3.1833882    27.958962 
     680   0.74800669    -1314.291   0.20940724    21851.588    3.1839754    27.957243 
     690   0.74549752   -1314.2591    6.7538501    21847.568    3.1845613    27.955528 
     700   0.74304188   -1314.2267    12.874852    21843.836    3.1851054    27.953936 
     710   0.74064477   -1314.1941    18.175391    21840.654    3.1855695    27.952579 
     720   0.73831428   -1314.1613     22.30999    21838.246    3.1859208    27.951551 
     730   0.73606182   -1314.1287    25.008094    21836.787    3.1861335    27.950929 
     740   0.73390207   -1314.0963     26.09265    21836.393    3.1861911    27.950761 
     750   0.73185285   -1314.0644    25.492392    21837.109    3.1860867    27.951066 
     760   0.72993484   -1314.0329    23.246791    21838.909     3.185824    27.951834 
     770   0.72817116   -1314.0016    19.503272    21841.698    3.1854171    27.953024 
     780   0.72658687   -1313.9704    14.506919    21845.318    3.1848893    27.954569 
     790   0.72520846   -1313.9392    8.5835502    21849.556    3.1842715    27.956376 
     800   0.72406323   -1313.9078    2.1175242    21854.161    3.1836006     27.95834 
     810   0.72317885   -1313.8761   -4.4739619    21858.856    3.1829168    27.960342 
     820    0.7225828   -1313.8443   -10.768194    21863.361    3.1822609    27.962263 
     830   0.72230202   -1313.8124   -16.363998    21867.408    3.1816721    27.963988 
     840   0.72236261   -1313.7808   -20.906817    21870.757    3.1811849    27.965415 
     850   0.72279832   -1313.7251   -23.962011    21873.215    3.1808273    27.966463 
     860   0.72362516   -1313.6947   -25.637458    21874.651    3.1806185    27.967075 
     870   0.72486239    -1313.665   -25.677932    21874.993    3.1805688    27.967221 
     880   0.72654736   -1313.6117   -23.931795     21874.24    3.1806784    27.966899 
     890   0.72870213   -1313.5838   -20.809719    21872.464    3.1809366    27.966143 
     900   0.73132445   -1313.5565   -16.359446    21869.801    3.1813239    27.965008 
     910   0.73444444   -1313.5051   -10.713946    21866.442    3.1818126    27.963576 
     920   0.73806825   -1313.4787   -4.5321168    21862.627    3.1823678     27.96195 
     930    0.7422013   -1313.4525    1.9414964     21858.62    3.1829512    27.960241 
     940   0.74686123   -1313.4019    8.4378212      21854.7     3.183522     27.95857 
     950   0.75204849   -1313.3762    14.239046    21851.141    3.1840406    27.957052 
     960   0.75776911    -1313.351    19.119722     21848.19    3.1844707    27.955793 
     970   0.76402652   -1313.3266    22.761563    21846.054    3.1847821    27.954882 
     980   0.77082082    -1313.303    24.926318    21844.887    3.1849522    27.954384 
     990   0.77814832   -1313.2804    25.472161    21844.781    3.1849676    27.954339 
    1000   0.78600134   -1313.2589    24.363532     21845.76    3.1848248    27.954757 
    1010   0.79436794   -1313.2384    21.673584    21847.777    3.1845309    27.955617 
    1020   0.80323186   -1313.2187    17.579049    21850.716    3.1841025    27.956871 
    1030   0.81257461   -1313.1751    12.499118    21854.405    3.1835651    27.958444 
    1040   0.82238003   -1313.1565    6.4658869    21858.624    3.1829506    27.960243 
    1050   0.83260672   -1313.1381  0.018429493    21863.119    3.1822962    27.962159 
    1060   0.84322232     -1313.12   -6.4276542    21867.615    3.1816418    27.964076 
    1070   0.85419184   -1313.0775   -12.308199    21871.838    3.1810276    27.965876 
    1080   0.86548474     -1313.06   -17.546757    21875.533    3.1804903    27.967451 
    1090   0.87705852   -1313.0677   -21.813639    21878.478    3.1800622    27.968706 
    1100   0.88887246   -1313.0269    -24.38938    21880.492    3.1797695    27.969564 
    1110   0.90088285   -1312.9872   -25.411186    21881.462    3.1796285    27.969977 
    1120   0.91305633    -1312.973   -24.965079    21881.345    3.1796456    27.969927 
    1130   0.92532127   -1312.9597   -22.932792    21880.161    3.1798176    27.969423 
    1140   0.93763215   -1312.9474   -19.442822    21877.999    3.1801319    27.968501 
    1150   0.94994754   -1312.9603   -14.866978    21875.007    3.1805668    27.967226 
    1160   0.96224239   -1312.9493   -9.1969814    21871.384    3.1810936    27.965682 
    1170   0.97446191   -1312.9633   -3.0884772    21867.367     3.181678     27.96397 
    1180   0.98655844    -1312.953    3.3657118     21863.22    3.1822815    27.962202 
    1190   0.99849969   -1312.8942    9.9014238    21859.218    3.1828641    27.960496 
    1200    1.0102395    -1312.885    15.497142    21855.634     3.183386    27.958968 
    1210    1.0217012   -1312.8767    20.083902    21852.713    3.1838116    27.957722 
    1220     1.032854   -1312.8695    23.361297    21850.647    3.1841125    27.956841 
    1230    1.0436106   -1312.8636    25.113903    21849.578    3.1842684    27.956385 
    1240     1.053903   -1312.8591    25.225716    21849.578    3.1842684    27.956385 
    1250    1.0636556   -1312.8563    23.688366    21850.653    3.1841117    27.956844 
    1260    1.0727839    -1312.855     20.60169    21852.736    3.1838081    27.957732 
    1270    1.0811943   -1312.8552    16.166776    21855.698    3.1833767    27.958995 
    1280    1.0887847   -1312.8567    10.672049    21859.348    3.1828451    27.960552 
    1290    1.0954474   -1312.8348    4.6227048    21863.455    3.1822472    27.962303 
    1300    1.1010785   -1312.8141   -1.7417733    21867.761    3.1816207    27.964138 
    1310    1.1055599   -1312.8191    -8.162101    21871.992    3.1810052    27.965942 
    1320    1.1087895   -1312.8255   -14.077951    21875.875    3.1804406    27.967596 
    1330    1.1106998   -1312.8333   -19.113926    21879.157    3.1799635    27.968995 
    1340    1.1112825   -1312.8674   -23.099665    21881.621    3.1796054    27.970045 
    1350    1.1105742   -1312.9035   -25.635024    21883.097     3.179391    27.970674 
    1360    1.1087146   -1312.9172   -26.413635    21883.479    3.1793354    27.970837 
    1370    1.1058286    -1312.933   -25.534948    21882.733    3.1794438    27.970519 
    1380    1.1021722   -1313.0247   -23.506083    21880.896    3.1797107    27.969736 
    1390    1.0980783   -1313.0447   -19.556691    21878.063    3.1801226    27.968529 
    1400    1.0938114   -1313.0665   -14.378474    21874.395    3.1806558    27.966966 
    1410    1.0896728   -1313.1143   -8.4487436    21870.115    3.1812782    27.965142 
    1420    1.0859316   -1313.1389   -1.8440585    21865.478    3.1819528    27.963165 
    1430    1.0827777   -1313.1646    4.8661149    21860.765    3.1826388    27.961156 
    1440    1.0803508   -1313.1915    11.251293    21856.262    3.1832946    27.959236 
    1450    1.0787302   -1313.2195    16.899483    21852.239    3.1838805     27.95752 
    1460    1.0779421   -1313.2488    21.444437    21848.939    3.1843615    27.956113 
    1470    1.0779691   -1313.2797    24.590368    21846.552    3.1847094    27.955095 
    1480    1.0787608   -1313.3366    25.980986    21845.214    3.1849045    27.954524 
    1490    1.0802476   -1313.3705    25.825031    21844.984     3.184938    27.954426 
    1500    1.0823345   -1313.4059    23.986226    21845.854    3.1848112    27.954797 
    1510    1.0849202   -1313.4425    20.586608    21847.745    3.1845356    27.955603 
    1520    1.0879002   -1313.4801    15.850217    21850.512    3.1841322    27.956784 
    1530    1.0911711   -1313.5184    10.087584    21853.955    3.1836306    27.958252 
    1540    1.0946347    -1313.557     3.674508    21857.827    3.1830666    27.959903 
    1550    1.0982143   -1313.5713   -2.8241044    21861.858    3.1824797    27.961622 
    1560    1.1018395   -1313.6349   -9.4377064    21865.767    3.1819109    27.963288 
    1570    1.1054227   -1313.6741   -15.292329    21869.273    3.1814007    27.964783 
    1580    1.1089152    -1313.738   -20.314997    21872.125    3.1809858    27.965998 
    1590    1.1122632   -1313.7778   -23.887293    21874.111    3.1806971    27.966845 
    1600    1.1154193   -1313.8181   -25.933865    21875.077    3.1805566    27.967256 
    1610    1.1183538   -1313.8589   -26.325307    21874.937     3.180577    27.967197 
    1620     1.121044   -1313.9002   -25.036307    21873.673    3.1807608    27.966658 
    1630    1.1234733   -1313.9418   -22.147129    21871.341    3.1810999    27.965664 
    1640    1.1256297   -1313.9836   -17.838933    21868.066    3.1815763    27.964268 
    1650    1.1275045   -1314.0253   -12.383123    21864.031    3.1821635    27.962548 
    1660    1.1290919   -1314.0666    -6.125145     21859.47    3.1828274    27.960604 
    1670     1.130388   -1314.1073   0.53652193     21854.65    3.1835293    27.958549 
    1680    1.1313906   -1314.1474    7.1751482    21849.856    3.1842278    27.956504 
    1690    1.1320994   -1314.1868    13.362918     21845.37    3.1848817    27.954591 
    1700    1.1325159   -1314.2257    18.698806    21841.455    3.1854526     27.95292 
    1710    1.1326439   -1314.2642    22.835277    21838.337    3.1859074     27.95159 
    1720    1.1324894   -1314.3026    25.501868    21836.193    3.1862203    27.950675 
    1730    1.1320614   -1314.3411    26.523811    21835.133    3.1863749    27.950223 
    1740    1.1313717   -1314.3795    25.834199    21835.202    3.1863648    27.950253 
    1750    1.1304351    -1314.418    23.478666    21836.371    3.1861943    27.950751 
    1760    1.1292694   -1314.4563    19.612191    21838.538    3.1858782    27.951676 
    1770     1.127895   -1314.4943    14.488288    21841.539    3.1854404    27.952956 
    1780    1.1263347   -1314.5318    8.4415107    21845.157    3.1849128      27.9545 
    1790    1.1246127   -1314.5685    1.8646794    21849.134    3.1843331    27.956196 
    1800    1.1227542   -1314.6045   -4.8173682    21853.191    3.1837419    27.957926 
    1810    1.1207844   -1314.6398   -11.175573    21857.043    3.1831809    27.959569 
    1820    1.1187278   -1314.6745   -16.804084    21860.418    3.1826893    27.961008 
    1830    1.1166265   -1314.7334   -21.494222    21863.075    3.1823025    27.962141 
    1840    1.1144903   -1314.7676   -24.650103    21864.816    3.1820491    27.962883 
    1850    1.1123291   -1314.8018   -26.224052    21865.506    3.1819488    27.963177 
    1860    1.1101548   -1314.8362     -26.1173    21865.077    3.1820111    27.962994 
    1870    1.1079749   -1314.8707   -24.336673    21863.536    3.1822355    27.962337 
    1880     1.105792   -1314.9052   -20.994182    21860.957    3.1826109    27.961238 
    1890    1.1036038   -1314.9395   -16.300464    21857.485    3.1831165    27.959757 
    1900    1.1014032   -1314.9733   -10.552323     21853.32    3.1837231    27.957981 
    1910    1.0991787   -1315.0065   -4.1148981    21848.708    3.1843952    27.956014 
    1920    1.0969147   -1315.0389    2.6007031    21843.923    3.1850927    27.953973 
    1930    1.0945926   -1315.0705    9.1631742    21839.252     3.185774    27.951981 
    1940    1.0921912   -1315.1012    15.148677    21834.973    3.1863983    27.950155 
    1950    1.0896879   -1315.1313     20.16866     21831.34    3.1869285    27.948605 
    1960    1.0870598   -1315.1609    23.895893    21828.567    3.1873334    27.947421 
    1970    1.0842844   -1315.1902    26.086788     21826.81    3.1875899    27.946672 
    1980    1.0813409   -1315.2193    26.598226    21826.163    3.1876844    27.946395 
    1990    1.0782107   -1315.2481    25.397536    21826.647    3.1876138    27.946602 
    2000    1.0748783   -1315.2765    22.564763     21828.21    3.1873856    27.947269 
    2010    1.0713317   -1315.3044    18.287042    21830.732    3.1870173    27.948345 
    2020    1.0675626   -1315.3314    12.845554    21834.031    3.1865358    27.949753 
    2030    1.0635664   -1315.3574    6.5961636    21837.877    3.1859746    27.951394 
    2040    1.0593421   -1315.3822 -0.054713634    21842.003    3.1853727    27.953154 
    2050     1.054892   -1315.4056   -6.6771339    21846.127    3.1847715    27.954913 
    2060     1.050221   -1315.4277   -12.845594    21849.966    3.1842118    27.956551 
    2070    1.0453362   -1315.4487    -18.16607    21853.258    3.1837321    27.957955 
    2080    1.0402462   -1315.4686   -22.300477    21855.776    3.1833653    27.959029 
    2090    1.0349607   -1315.4877   -24.987204    21857.344     3.183137    27.959697 
    2100    1.0294903   -1315.5061   -26.056709    21857.847    3.1830637    27.959912 
    2110    1.0238457   -1315.5239   -25.441491     21857.24    3.1831521    27.959653 
    2120    1.0180381   -1315.5408   -23.180013    21855.549    3.1833984    27.958932 
    2130    1.0120797   -1315.5569   -19.414449    21852.872    3.1837884     27.95779 
    2140    1.0059832   -1315.5718   -14.382321    21849.369    3.1842988    27.956296 
    2150   0.99976341   -1315.5853   -8.4023776    21845.256    3.1848983    27.954542 
    2160   0.99343753   -1315.5972   -1.8553143    21840.788    3.1855499    27.952636 
    2170   0.98702625   -1315.6075    4.8397252    21836.243    3.1862129    27.950697 
    2180   0.98055478    -1315.616    11.251623    21831.907    3.1868457    27.948847 
    2190   0.97405386    -1315.623    16.965154    21828.052    3.1874086    27.947202 
    2200   0.96756073   -1315.6286    21.608431     21824.92     3.187866    27.945865 
    2210   0.96111996    -1315.633    24.877969    21822.707    3.1881892     27.94492 
    2220   0.95478402   -1315.6364    26.559484    21821.553    3.1883579    27.944428 
    2230   0.94861365   -1315.6389    26.542744    21821.527    3.1883617    27.944416 
    2240   0.94267782   -1315.6405    24.829261    21822.629    3.1882007    27.944887 
    2250   0.93705326   -1315.6413    21.532159    21824.785    3.1878857    27.945807 
    2260   0.93182354   -1315.6409     16.86824    21827.857    3.1874371    27.947118 
    2270   0.92707744   -1315.6392    11.142915    21831.645    3.1868841    27.948735 
    2280   0.92290659   -1315.6361    4.7292538    21835.906    3.1862621    27.950553 
    2290   0.91940201   -1315.6315   -1.9571791    21840.369    3.1856111    27.952457 
    2300   0.91664955   -1315.6253   -8.4857909    21844.748    3.1849725    27.954325 
    2310   0.91472391   -1315.6178   -14.438788    21848.765    3.1843868    27.956039 
    2320   0.91368139   -1315.6091    -19.43755    21852.168     3.183891     27.95749 
    2330   0.91355167   -1315.5994   -23.165984    21854.742     3.183516    27.958588 
    2340   0.91432979    -1315.589   -25.389615    21856.329    3.1832848    27.959264 
    2350   0.91596966    -1315.578   -25.969503    21856.834    3.1832113     27.95948 
    2360   0.91838121   -1315.5665   -24.870367    21856.232    3.1832989    27.959223 
    2370   0.92143272   -1315.5544   -22.162596    21854.572    3.1835408    27.958515 
    2380   0.92495901   -1315.5416    -18.01808    21851.968    3.1839201    27.957405 
    2390   0.92877444   -1315.5278   -12.700007    21848.599    3.1844111    27.955968 
    2400   0.93268805   -1315.5129   -6.5470808    21844.691    3.1849808    27.954301 
    2410   0.93651813   -1315.4967      0.04714    21840.506     3.185591    27.952516 
    2420   0.94010342   -1315.4792     6.658742    21836.326    3.1862008    27.950732 
    2430   0.94331011   -1315.4604    12.860434    21832.432    3.1867691    27.949071 
    2440   0.94603467   -1315.4405    18.249353    21829.087    3.1872575    27.947643 
    2450   0.94820356   -1315.4197    22.473837    21826.519    3.1876324    27.946547 
    2460   0.94977098   -1315.3982    25.257219    21824.908    3.1878677     27.94586 
    2470   0.95071561   -1315.3762    26.416826    21824.371    3.1879462     27.94563 
    2480   0.95103691   -1315.3538    25.876637    21824.956    3.1878607     27.94588 
    2490   0.95075152   -1315.3309    23.672548    21826.641    3.1876147    27.946599 
    2500   0.94988962   -1315.3076    19.949805    21829.331    3.1872218    27.947748 
    2510   0.94849163   -1315.2836    14.952821     21832.87    3.1867052    27.949257 
    2520     0.946605   -1315.2587    9.0082427    21837.043    3.1860962    27.951038 
    2530   0.94428131   -1315.2329    2.5026375      21841.6    3.1854315    27.952982 
    2540   0.94157361    -1315.206   -4.1434162    21846.263    3.1847516    27.954971 
    2550   0.93853404   -1315.1781   -10.502933    21850.749    3.1840978    27.956885 
    2560   0.93521188   -1315.1494   -16.169902    21854.787    3.1835095    27.958607 
    2570   0.93165194     -1315.12   -20.784705    21858.135    3.1830218    27.960035 
    2580    0.9278934   -1315.0903   -24.056123    21860.598    3.1826632    27.961084 
    2590   0.92396915   -1315.0604   -25.778794    21862.034    3.1824541    27.961697 
    2600   0.91990553   -1315.0305   -25.845308    21862.371     3.182405    27.961841 
    2610   0.91572252   -1315.0005   -24.252446    21861.607    3.1825163    27.961515 
    2620    0.9114343   -1314.9705   -21.101309    21859.809     3.182778    27.960748 
    2630   0.90705013   -1314.9401   -16.591347    21857.114    3.1831705    27.959599 
    2640   0.90257539   -1314.9093    -11.00852    21853.713    3.1836659    27.958149 
    2650   0.89801279   -1314.8779   -4.7081066    21849.845    3.1842295    27.956499 
    2660   0.89336362   -1314.8456    1.9070643    21845.779    3.1848221    27.954765 
    2670   0.88862885   -1314.8127    8.4118148    21841.797    3.1854027    27.953067 
    2680    0.8838102    -1314.779    14.385833    21838.176     3.185931    27.951521 
    2690   0.87891089   -1314.7448    19.441181    21835.168    3.1863698    27.950238 
    2700   0.87393625   -1314.7103      23.2482    21832.989    3.1866878    27.949308 
    2710   0.86889408   -1314.6757     25.55791      21831.8    3.1868614    27.948801 
    2720   0.86379466   -1314.6412    26.219148    21831.698    3.1868763    27.948757 
    2730   0.85865072   -1314.6069    25.189044     21832.71    3.1867285    27.949189 
    2740   0.85347706   -1314.5726    22.535968    21834.794    3.1864244    27.950078 
    2750   0.84829022   -1314.5383    18.434683    21837.835    3.1859806    27.951376 
    2760   0.84310792   -1314.5037    13.154144    21841.661    3.1854227    27.953008 
    2770    0.8379486   -1314.4688    7.0389403    21846.045    3.1847833    27.954878 
    2780   0.83283098   -1314.4333   0.48589192    21850.728    3.1841007    27.956876 
    2790    0.8277736   -1314.3973   -6.0823753    21855.432    3.1834155    27.958882 
    2800   0.82279464   -1314.3608    -12.24497    21859.876    3.1827683    27.960777 
    2810   0.81791171   -1314.3241    -17.60952    21863.797    3.1821975    27.962448 
    2820   0.81314186   -1314.2873   -21.836563    21866.966    3.1817363    27.963799 
    2830    0.8085018   -1314.2506   -24.660172    21869.204    3.1814107    27.964753 
    2840    0.8040081   -1314.2144   -25.903799    21870.389    3.1812384    27.965258 
    2850   0.79967764   -1314.1786   -25.490623    21870.469    3.1812268    27.965292 
    2860   0.79552807   -1314.1434   -23.447974    21869.461    3.1813734    27.964863 
    2870   0.79157837   -1314.1086   -19.905672    21867.454    3.1816654    27.964007 
    2880    0.7878493    -1314.074    -15.08835    21864.599    3.1820808     27.96279 
    2890   0.78436394   -1314.0396    -9.302072    21861.103    3.1825897      27.9613 
    2900   0.78114805   -1314.0051   -2.9158362    21857.212    3.1831562    27.959641 
    2910   0.77823028   -1313.9706    3.6611646      21853.2    3.1837406     27.95793 
    2920   0.77564228   -1313.9361    10.005307    21849.347    3.1843021    27.956287 
    2930   0.77343719   -1313.8771    15.855038    21845.923    3.1848012    27.954826 
    2940   0.77164151   -1313.8431    20.529857    21843.176    3.1852017    27.953654 
    2950   0.77028349   -1313.8098    23.875134    21841.304    3.1854747    27.952856 
    2960   0.76940316   -1313.7773    25.671689    21840.449    3.1855994    27.952491 
    2970   0.76904114   -1313.7458    25.801708    21840.686    3.1855647    27.952593 
    2980   0.76925444   -1313.6909    24.404642    21842.024    3.1853696    27.953163 
    2990   0.77006437   -1313.6616    21.273732      21844.4    3.1850232    27.954177 
    3000   0.77152268   -1313.6087    16.916025    21847.682    3.1845448    27.955576 
    3010   0.77368908   -1313.5566    11.464054    21851.684    3.1839615    27.957283 
    3020   0.77654622   -1313.5296    5.1239412    21856.174    3.1833074    27.959198 
    3030   0.78011311   -1313.5032   -1.5426656    21860.881     3.182622    27.961205 
    3040   0.78440832   -1313.4772   -8.1069173    21865.522    3.1819465    27.963184 
    3050   0.78944523   -1313.4519   -14.149233    21869.816    3.1813217    27.965014 
    3060   0.79523168   -1313.4274   -19.285804    21873.505    3.1807852    27.966586 
    3070    0.8017699   -1313.4039   -23.192272    21876.371    3.1803685    27.967808 
    3080   0.80905649   -1313.3816   -25.623302    21878.245     3.180096    27.968606 
    3090    0.8170851   -1313.3362   -26.276593    21879.026    3.1799826    27.968939 
    3100    0.8258412   -1313.3168   -25.411954    21878.683    3.1800324    27.968793 
    3110   0.83529918   -1313.2988   -22.935578    21877.255    3.1802399    27.968185 
    3120   0.84544624   -1313.2575   -18.854521    21874.851    3.1805895     27.96716 
    3130   0.85624848   -1313.2419   -13.726924    21871.643     3.181056    27.965793 
    3140   0.86766139   -1313.2271   -7.7280536    21867.851    3.1816076    27.964177 
    3150   0.87964792   -1313.2376   -1.3901153    21863.732     3.182207    27.962421 
    3160   0.89216811   -1313.2241    5.1807853    21859.556    3.1828148     27.96064 
    3170   0.90517471   -1313.2114    11.411201    21855.605    3.1833903    27.958956 
    3180   0.91861643   -1313.1994    16.897666    21852.142    3.1838947    27.957479 
    3190   0.93243868    -1313.213    21.131842    21849.402    3.1842941     27.95631 
    3200   0.94662596   -1313.1788    24.284181    21847.567    3.1845615    27.955527 
    3210   0.96107754   -1313.1705    25.701585    21846.766    3.1846782    27.955186 
    3220   0.97572578   -1313.1392    25.590282    21847.062    3.1846351    27.955312 
    3230   0.99047585    -1313.134    23.658176    21848.447    3.1844332    27.955903 
    3240     1.005233   -1313.1303    20.182995    21850.839    3.1840846    27.956923 
    3250    1.0199098   -1313.1032    15.542877     21854.09    3.1836109     27.95831 
    3260    1.0344394   -1313.0774    9.8895372    21858.003    3.1830411    27.959978 
    3270    1.0486567    -1313.077    3.4385143    21862.335    3.1824103    27.961825 
    3280    1.0624137   -1313.0776    -3.243682    21866.813    3.1817587    27.963734 
    3290    1.0755626   -1313.0792    -9.729192    21871.151    3.1811275    27.965583 
    3300    1.0879406   -1313.0818   -15.605529    21875.073    3.1805571    27.967255 
    3310    1.0993788   -1313.0612   -20.351367    21878.329    3.1800838    27.968642 
    3320    1.1096854   -1313.0668   -23.968852    21880.714    3.1797372    27.969658 
    3330    1.1186674   -1313.0743   -26.083149    21882.075    3.1795395    27.970238 
    3340    1.1261519   -1313.0838   -26.564326    21882.321    3.1795036    27.970343 
    3350    1.1319179   -1313.0955    -25.38358    21881.434    3.1796326    27.969965 
    3360     1.135836   -1313.1338   -22.767951    21879.463     3.179919    27.969125 
    3370    1.1378628   -1313.1741   -18.735358    21876.523    3.1803463    27.967873 
    3380     1.138029   -1313.1916   -13.390838    21872.788    3.1808894    27.966281 
    3390      1.13648   -1313.2108    -7.220774    21868.484    3.1815154    27.964447 
    3400    1.1335167   -1313.2314  -0.61764814    21863.876     3.182186    27.962482 
    3410    1.1295527   -1313.2288    6.1480167    21859.245    3.1828602    27.960508 
    3420    1.1250692   -1313.2523    12.343991    21854.876    3.1834964    27.958645 
    3430    1.1205165   -1313.2773    17.717767    21851.037    3.1840558    27.957007 
    3440    1.1162956    -1313.304    21.921638    21847.954     3.184505    27.955693 
    3450    1.1127157   -1313.3818     24.38087    21845.807     3.184818    27.954777 
    3460    1.1100285   -1313.4371    25.383352    21844.703     3.184979    27.954306 
    3470     1.108278   -1313.4698    24.869585    21844.681    3.1849822    27.954297 
    3480    1.1074673   -1313.5043    22.726529    21845.718    3.1848311    27.954739 
    3490    1.1075672   -1313.5897    18.795837    21847.721    3.1845391    27.955593 
    3500    1.1085196   -1313.6519    13.788897    21850.523    3.1841306    27.956789 
    3510    1.1101603   -1313.6905     8.035336    21853.913    3.1836367    27.958234 
    3520    1.1123487   -1313.7298    1.7599065    21857.644    3.1830934    27.959825 
    3530    1.1149383   -1313.7696   -4.6297077    21861.448    3.1825394    27.961447 
    3540     1.117802   -1313.8342    -10.87114    21865.054    3.1820146    27.962984 
    3550    1.1208045   -1313.8746   -16.263565    21868.196    3.1815574    27.964324 
    3560    1.1237852   -1313.9153   -20.611844    21870.643    3.1812014    27.965367 
    3570    1.1266174   -1313.9563   -23.638775     21872.21    3.1809734    27.966035 
    3580    1.1292006   -1314.0222   -25.301701    21872.768    3.1808924    27.966272 
    3590    1.1314359   -1314.0637    -25.19391    21872.247    3.1809682     27.96605 
    3600     1.133214   -1314.1052   -23.469726    21870.651    3.1812002     27.96537 
    3610    1.1344552   -1314.1465   -20.235564    21868.056    3.1815777    27.964264 
    3620    1.1350918   -1314.1873    -15.69332      21864.6    3.1820806    27.962791 
    3630    1.1350675    -1314.227   -10.128411    21860.478    3.1826807    27.961033 
    3640    1.1343368   -1314.2655   -3.8926187    21855.927    3.1833433    27.959093 
    3650    1.1328657   -1314.3025    2.6174808    21851.215    3.1840299    27.957083 
    3660    1.1306312   -1314.3379     8.985356    21846.618    3.1846999    27.955123 
    3670    1.1276217   -1314.3716    14.801214    21842.407    3.1853138    27.953327 
    3680    1.1238376   -1314.4038    19.688845    21838.829    3.1858356      27.9518 
    3690     1.119291   -1314.4345    23.330765    21836.092     3.186235    27.950632 
    3700    1.1140066   -1314.4639    25.489796    21834.349    3.1864893    27.949889 
    3710     1.108021   -1314.4921    26.025398    21833.691    3.1865853    27.949608 
    3720    1.1013825   -1314.5192    24.903409    21834.141    3.1865198      27.9498 
    3730    1.0941507   -1314.5449    22.198405    21835.649    3.1862996    27.950443 
    3740     1.086395   -1314.5693    18.088454    21838.101    3.1859419    27.951489 
    3750    1.0781935   -1314.5922    12.842727    21841.321    3.1854721    27.952863 
    3760    1.0696316   -1314.6133    6.8029991    21845.088    3.1849229     27.95447 
    3770    1.0607999   -1314.6327   0.36050989    21849.142    3.1843319    27.956199 
    3780    1.0517928   -1314.6504   -6.0700163    21853.211     3.183739    27.957935 
    3790    1.0427064   -1314.6664   -12.077326     21857.02    3.1831842    27.959559 
    3800    1.0336371   -1314.6811   -17.279759    21860.313    3.1827046    27.960963 
    3810    1.0246801   -1314.6947   -21.348935    21862.869    3.1823326    27.962053 
    3820     1.015928   -1314.7074   -24.029696    21864.514    3.1820932    27.962754 
    3830    1.0074698   -1314.7196   -25.155309    21865.133     3.182003    27.963018 
    3840   0.99939043   -1314.7314   -24.657231     21864.68    3.1820689    27.962825 
    3850   0.99176979   -1314.7428   -22.569059    21863.177    3.1822878    27.962184 
    3860   0.98468255   -1314.7539   -19.024489    21860.712    3.1826465    27.961133 
    3870   0.97819788   -1314.7645   -14.249371    21857.439    3.1831231    27.959738 
    3880   0.97237921   -1314.7746   -8.5482115    21853.562    3.1836879    27.958084 
    3890   0.96728405    -1314.784   -2.2856962    21849.324    3.1843055    27.956277 
    3900   0.96296372   -1314.7927    4.1358574    21844.992    3.1849369    27.954429 
    3910   0.95946298   -1314.8009    10.301906     21840.84    3.1855424    27.952658 
    3920   0.95681953   -1314.8086    15.812438    21837.129    3.1860837    27.951075 
    3930    0.9550633   -1314.8162    20.308346    21834.094    3.1865265     27.94978 
    3940   0.95421557   -1314.8239    23.495538    21831.925    3.1868431    27.948854 
    3950    0.9542879   -1314.8318    25.164999    21830.756    3.1870137    27.948356 
    3960   0.95528089   -1314.8402     25.20719    21830.658    3.1870281    27.948314 
    3970    0.9571829   -1314.8491    23.619626    21831.631     3.186886    27.948729 
    3980   0.95996862   -1314.8584    20.506983    21833.609    3.1865974    27.949573 
    3990   0.96359788   -1314.8679    16.073739    21836.457    3.1861817    27.950788 
    4000   0.96801456   -1314.8776    10.609974    21839.988    3.1856666    27.952295 
    4010   0.97314584   -1314.8871    4.4714816    21843.969    3.1850861    27.953993 
    4020   0.97890191   -1314.8965   -1.9442068    21848.139    3.1844782    27.955771 
    4030    0.9851763   -1314.9056   -8.2240834    21852.224    3.1838828    27.957514 
    4040   0.99184672   -1314.9146   -13.966354    21855.958    3.1833389    27.959106 
    4050   0.99877665   -1314.9236   -18.805812    21859.095     3.182882    27.960444 
    4060    1.0058175   -1314.9328   -22.436378     21861.43     3.182542    27.961439 
    4070    1.0128112   -1314.9422   -24.629605    21862.807    3.1823415    27.962026 
    4080    1.0195941   -1314.9521   -25.248241    21863.134     3.182294    27.962166 
    4090    1.0259999   -1314.9625   -24.254258    21862.385     3.182403    27.961846 
    4100    1.0318651   -1314.9731   -21.711017    21860.603    3.1826625    27.961087 
    4110    1.0370329   -1314.9839   -17.779494    21857.897    3.1830565    27.959933 
    4120    1.0413595   -1314.9946   -12.708715    21854.435    3.1835606    27.958457 
    4130    1.0447194    -1315.005   -6.8208153    21850.436    3.1841433    27.956751 
    4140    1.0470115   -1315.0149   -0.4913852     21846.15    3.1847681    27.954923 
    4150    1.0481654   -1315.0242    5.8738865    21841.846    3.1853955    27.953087 
    4160    1.0481457   -1315.0329    11.864999    21837.797    3.1859862     27.95136 
    4170    1.0469562   -1315.0411    17.094264    21834.255     3.186503    27.949849 
    4180    1.0446403    -1315.049    21.221998    21831.444    3.1869134    27.948649 
    4190    1.0412801   -1315.0567    23.979428    21829.536    3.1871918    27.947835 
    4200    1.0369908   -1315.0644    25.187064     21828.65    3.1873213    27.947457 
    4210    1.0319139   -1315.0721    24.767073    21828.834    3.1872944    27.947535 
    4220    1.0262074   -1315.0799    22.748624    21830.071    3.1871138    27.948063 
    4230    1.0200368   -1315.0876    19.265778    21832.274    3.1867921    27.949003 
    4240     1.013566    -1315.095    14.548097    21835.296    3.1863511    27.950293 
    4250    1.0069506   -1315.1019     8.904752    21838.935    3.1858202    27.951845 
    4260     1.000333   -1315.1083    2.7034451    21842.951    3.1852344    27.953559 
    4270   0.99383938   -1315.1139   -3.6542225    21847.081    3.1846323     27.95532 
    4280   0.98757945   -1315.1189   -9.7591028    21851.054    3.1840533    27.957015 
    4290   0.98164628   -1315.1234   -15.220756    21854.609    3.1835353    27.958531 
    4300   0.97611761   -1315.1275   -19.691934    21857.515    3.1831121     27.95977 
    4310   0.97105725   -1315.1314   -22.889886     21859.58    3.1828114    27.960651 
    4320   0.96651671   -1315.1353   -24.613351    21860.669    3.1826529    27.961115 
    4330   0.96253664   -1315.1392   -24.754461    21860.708    3.1826471    27.961132 
    4340   0.95914818   -1315.1432   -23.305018    21859.693    3.1827949    27.960699 
    4350   0.95637398   -1315.1472   -20.356913    21857.686    3.1830872    27.959843 
    4360   0.95422913    -1315.151   -16.096658    21854.813    3.1835056    27.958618 
    4370   0.95272165   -1315.1544   -10.794273    21851.257    3.1840237    27.957101 
    4380   0.95185283   -1315.1571   -4.7869971    21847.245    3.1846084     27.95539 
    4390   0.95161726   -1315.1591    1.5414017    21843.033    3.1852225    27.953594 
    4400   0.95200258   -1315.1603    7.7846496    21838.891    3.1858267    27.951826 
    4410   0.95298904   -1315.1607    13.539952    21835.083    3.1863822    27.950202 
    4420   0.95454885   -1315.1604    18.434306    21831.855    3.1868534    27.948824 
    4430   0.95664554   -1315.1597    22.149339    21829.412    3.1872099    27.947782 
    4440   0.95923333   -1315.1586    24.442868    21827.914    3.1874288    27.947143 
    4450   0.96225688   -1315.1573    25.165492    21827.455    3.1874958    27.946947 
    4460    0.9656514   -1315.1558    24.270898    21828.066    3.1874065    27.947208 
    4470   0.96934351   -1315.1541    21.819013    21829.708    3.1871667    27.947908 
    4480   0.97325268    -1315.152    17.971752    21832.277    3.1867917    27.949005 
    4490   0.97729347   -1315.1492    12.981721    21835.609    3.1863055    27.950426 
    4500   0.98137817   -1315.1457    7.1748046    21839.491    3.1857391    27.952083 
    4510   0.98541983   -1315.1413   0.92805798    21843.677    3.1851286    27.953868 
    4520   0.98933522    -1315.136   -5.3554071    21847.901    3.1845129     27.95567 
    4530   0.99304747   -1315.1298   -11.272709    21851.894    3.1839308    27.957373 
    4540   0.99648828   -1315.1228   -16.446882    21855.406    3.1834192    27.958871 
    4550    0.9995995   -1315.1153   -20.550367    21858.216      3.18301    27.960069 
    4560    1.0023341   -1315.1074   -23.324982    21860.148    3.1827286    27.960893 
    4570    1.0046566   -1315.0994   -24.597365    21861.086    3.1825921    27.961293 
    4580     1.006543   -1315.0914   -24.289166    21860.975    3.1826083    27.961245 
    4590    1.0079808   -1315.0833   -22.421571    21859.829    3.1827751    27.960757 
    4600    1.0089681   -1315.0752   -19.113972    21857.729    3.1830809    27.959861 
    4610    1.0095131   -1315.0668   -14.576846    21854.817    3.1835051    27.958619 
    4620    1.0096338    -1315.058   -9.0991475    21851.286    3.1840194    27.957114 
    4630    1.0093565   -1315.0487   -3.0307687    21847.372    3.1845899    27.955444 
    4640    1.0087158   -1315.0389    3.2390709    21843.332    3.1851789    27.953721 
    4650    1.0077529   -1315.0285    9.3063617    21839.434    3.1857474    27.952058 
    4660     1.006515   -1315.0178    14.778315    21835.936    3.1862577    27.950566 
    4670     1.005054   -1315.0068    19.299177    21833.069    3.1866761    27.949343 
    4680    1.0034252   -1314.9959    22.574039    21831.026    3.1869744    27.948471 
    4690    1.0016855   -1314.9852    24.388881    21829.943    3.1871325    27.948009 
    4700   0.99989271   -1314.9748    24.625267    21829.898     3.187139    27.947989 
    4710   0.99810297   -1314.9648    23.268512      21830.9    3.1869928    27.948417 
    4720    0.9963698   -1314.9551    20.408628     21832.89    3.1867022    27.949266 
    4730    0.9947423   -1314.9456     16.23399    21835.747    3.1862853    27.950485 
    4740   0.99326369   -1314.9361    11.018246    21839.293    3.1857679    27.951998 
    4750   0.99197002   -1314.9265    5.1015456    21843.306    3.1851827     27.95371 
    4760     0.990889   -1314.9167   -1.1324088    21847.534    3.1845663    27.955514 
    4770   0.99003915   -1314.9066   -7.2817577    21851.712    3.1839574    27.957295 
    4780   0.98942914   -1314.8962   -12.952517    21855.578    3.1833943    27.958944 
    4790   0.98905749   -1314.8858    -17.78353     21858.89    3.1829119    27.960356 
    4800   0.98891262   -1314.8754   -21.468834    21861.442    3.1825403    27.961444 
    4810   0.98897316   -1314.8653   -23.776214    21863.078    3.1823022    27.962142 
    4820   0.98920871   -1314.8555   -24.561031      21863.7    3.1822117    27.962407 
    4830   0.98958088   -1314.8461   -23.774702    21863.274    3.1822736    27.962225 
    4840   0.99004461   -1314.8369   -21.467475    21861.836     3.182483    27.961612 
    4850    0.9905498   -1314.8278   -17.785403    21859.484    3.1828254    27.960609 
    4860   0.99104309   -1314.8185   -12.961636    21856.377    3.1832779    27.959285 
    4870   0.99146979   -1314.8089   -7.3024153     21852.72    3.1838105    27.957725 
    4880   0.99177586   -1314.7986   -1.1684001    21848.757    3.1843881    27.956035 
    4890   0.99190979   -1314.7877    5.0477305    21844.747    3.1849725    27.954325 
    4900   0.99182445   -1314.7761    10.946172    21840.957    3.1855253    27.952708 
    4910   0.99147868   -1314.7639    16.145876    21837.636    3.1860097    27.951291 
    4920   0.99083861   -1314.7511    20.309711    21835.005    3.1863937    27.950168 
    4930   0.98987871   -1314.7379    23.167111    21833.239    3.1866513    27.949415 
    4940   0.98858239   -1314.7244    24.532505    21832.461    3.1867649    27.949083 
    4950   0.98694221   -1314.7107    24.318061    21832.726    3.1867263    27.949196 
    4960   0.98495969   -1314.6967    22.539712    21834.024    3.1865367     27.94975 
    4970   0.98264458   -1314.6822    19.315961     21836.28    3.1862075    27.950713 
    4980   0.98001384   -1314.6672    14.859564    21839.357    3.1857586    27.952025 
    4990   0.97709011   -1314.6514    9.4628035    21843.064     3.185218    27.953607 
    5000   0.97389997   -1314.6346    3.4775254    21847.172    3.1846191    27.955359 
    5010   0.97047191   -1314.6168   -2.7084685    21851.425    3.1839992    27.957173 
    5020   0.96683426   -1314.5979   -8.6969328    21855.562    3.1833966    27.958937 
    5030   0.96301313   -1314.5781   -14.104811    21859.325    3.1828485    27.960542 
    5040   0.95903064   -1314.5574    -18.58834    21862.485    3.1823884    27.961889 
    5050   0.95490343   -1314.5361   -21.864211    21864.852     3.182044    27.962898 
    5060   0.95064192   -1314.5144   -23.726654    21866.284    3.1818355    27.963509 
    5070    0.9462501   -1314.4923   -24.059639    21866.705    3.1817744    27.963688 
    5080   0.94172627   -1314.4699   -22.843631    21866.099    3.1818625     27.96343 
    5090   0.93706441   -1314.4473   -20.156646     21864.52    3.1820923    27.962757 
    5100   0.93225634   -1314.4241    -16.16957    21862.084    3.1824469    27.961718 
    5110   0.92729421   -1314.4003   -11.135924    21858.961    3.1829015    27.960387 
    5120   0.92217306   -1314.3758   -5.3765546    21855.367     3.183425    27.958854 
    5130   0.91689327   -1314.3504   0.74005533    21851.548    3.1839814    27.957225 
    5140    0.9114624   -1314.3242    6.8208225    21847.764    3.1845328    27.955612 
    5150   0.90589638   -1314.2972    12.473142    21844.274    3.1850415    27.954123 
    5160   0.90021991   -1314.2696    17.330452    21841.319    3.1854725    27.952862 
    5170   0.89446614   -1314.2417    21.076554    21839.104    3.1857955    27.951917 
    5180    0.8886758   -1314.2137    23.466932    21837.788    3.1859876    27.951356 
    5190   0.88289587   -1314.1858    24.345441     21837.47    3.1860339     27.95122 
    5200   0.87717823   -1314.1581    23.655022    21838.189     3.185929    27.951527 
    5210   0.87157813   -1314.1306    21.441586    21839.913    3.1856775    27.952263 
    5220   0.86615577   -1314.0787    18.001973    21842.549    3.1852931    27.953387 
    5230   0.86098053   -1314.0515    13.262337    21845.946    3.1847978    27.954836 
    5240   0.85609355   -1314.0243    7.6795674    21849.906    3.1842206    27.956525 
    5250   0.85155278    -1313.997    1.6155306    21854.191    3.1835963    27.958352 
    5260   0.84741531   -1313.9697   -4.5390727    21858.542    3.1829626    27.960208 
    5270   0.84373697   -1313.9424   -10.390237    21862.697    3.1823576    27.961979 
    5280     0.840572   -1313.9154   -15.565836    21866.407    3.1818177    27.963561 
    5290   0.83797284   -1313.8889   -19.738873     21869.45    3.1813749    27.964858 
    5300   0.83598994   -1313.8631   -22.647475     21871.65    3.1810549    27.965796 
    5310   0.83467174   -1313.8383   -24.110592    21872.883    3.1808757    27.966321 
    5320   0.83410004    -1313.741   -23.587819    21873.087    3.1808459    27.966408 
    5330   0.83433075   -1313.7188   -22.012737    21872.281    3.1809632    27.966065 
    5340   0.83534767   -1313.6977   -19.039966    21870.537    3.1812169    27.965321 
    5350   0.83719505   -1313.6532   -14.708388    21867.982    3.1815885    27.964232 
    5360   0.83993578   -1313.6343   -9.5933106    21864.801    3.1820514    27.962876 
    5370   0.84356802   -1313.6164   -3.8739441    21861.214    3.1825736    27.961347 
    5380   0.84812074   -1313.5994    2.0827921    21857.465    3.1831193    27.959749 
    5390   0.85361891   -1313.6079    7.7418993     21853.81    3.1836518     27.95819 
    5400   0.86010184   -1313.5684    13.185104    21850.492    3.1841352    27.956775 
    5410   0.86758244   -1313.5303    17.762744    21847.738    3.1845365    27.955601 
    5420   0.87606151   -1313.4936     21.17822    21845.742    3.1848275    27.954749 
    5430   0.88553413   -1313.4833    23.058857    21844.647    3.1849871    27.954282 
    5440   0.89596338   -1313.4748    23.429832    21844.534    3.1850036    27.954234 
    5450   0.90733377   -1313.4436    22.417741    21845.419    3.1848746    27.954612 
    5460    0.9196318   -1313.3897    20.089167    21847.259    3.1846064    27.955396 
    5470   0.93278639   -1313.4113    15.997274     21849.95    3.1842142    27.956544 
    5480   0.94670447   -1313.4099    11.010764    21853.321     3.183723    27.957981 
    5490   0.96129295   -1313.3852    5.4552407    21857.158     3.183164    27.959618 
    5500   0.97644888   -1313.3864  -0.60769727    21861.223    3.1825721    27.961351 
    5510   0.99205066   -1313.3887   -6.6407813     21865.26    3.1819846    27.963072 
    5520    1.0079619   -1313.3922   -12.258066     21869.01    3.1814389    27.964671 
    5530    1.0240308   -1313.4216   -17.253024    21872.235    3.1809698    27.966045 
    5540    1.0400863   -1313.4279   -21.010268    21874.723     3.180608    27.967106 
    5550    1.0559311   -1313.4604     -23.5907    21876.311    3.1803772    27.967782 
    5560    1.0713328   -1313.4701   -24.534587    21876.891    3.1802929    27.968029 
    5570    1.0860415    -1313.457   -23.784841    21876.423    3.1803608     27.96783 
    5580    1.0997762   -1313.4701   -21.690149     21874.94    3.1805765    27.967198 
    5590      1.11221   -1313.4847   -18.234973    21872.534    3.1809264    27.966172 
    5600    1.1230139   -1313.5006   -13.639054    21869.352    3.1813893    27.964816 
    5610    1.1318603   -1313.5175   -8.1949854    21865.591    3.1819364    27.963213 
    5620    1.1384585   -1313.5354   -2.2502849    21861.486    3.1825339    27.961463 
    5630    1.1426126    -1313.554     3.814304     21857.29    3.1831449    27.959674 
    5640    1.1442944   -1313.5733    9.6091015    21853.261    3.1837318    27.957956 
    5650    1.1437384   -1313.6181    14.613701    21849.642     3.184259    27.956413 
    5660    1.1414003   -1313.6639    18.654325    21846.648    3.1846954    27.955136 
    5670    1.1379283   -1313.6862     21.61933    21844.452    3.1850156    27.954199 
    5680    1.1340147   -1313.7096    23.167657    21843.178    3.1852013    27.953656 
    5690    1.1302683    -1313.759    23.051783     21842.89    3.1852433    27.953533 
    5700    1.1270719   -1313.8096    21.430904    21843.583    3.1851422    27.953828 
    5710    1.1246125   -1313.8368    18.561786    21845.191    3.1849079    27.954514 
    5720    1.1228948    -1313.865    14.486384    21847.586    3.1845586    27.955536 
    5730    1.1218534   -1313.8939    9.4722438    21850.597    3.1841198     27.95682 
    5740    1.1214479    -1313.997    3.3996091    21854.005    3.1836234    27.958273 
    5750    1.1215494   -1314.0269   -2.4407364    21857.557     3.183106    27.959788 
    5760     1.122002   -1314.0571    -8.121924    21861.003    3.1826042    27.961257 
    5770     1.122701   -1314.0875   -13.279309    21864.101    3.1821533    27.962578 
    5780    1.1235523   -1314.1182   -17.583519     21866.63    3.1817852    27.963656 
    5790    1.1245407   -1314.1985   -21.059132    21868.405     3.181527    27.964413 
    5800     1.125562   -1314.2301   -22.886847    21869.281    3.1813995    27.964786 
    5810    1.1265052   -1314.2621   -23.251509    21869.181    3.1814141    27.964744 
    5820    1.1273018   -1314.2944   -22.129612     21868.09    3.1815728    27.964278 
    5830    1.1278888   -1314.3268   -19.591278    21866.057    3.1818687    27.963412 
    5840    1.1282084   -1314.3591    -15.79607     21863.19    3.1822858     27.96219 
    5850    1.1282082    -1314.391   -10.983458    21859.654    3.1828006    27.960682 
    5860    1.1278414   -1314.4223   -5.4583527    21855.655     3.183383    27.958977 
    5870     1.127067   -1314.4527   0.42759746    21851.427    3.1839989    27.957174 
    5880    1.1258508   -1314.4821    6.2979716    21847.223    3.1846116    27.955381 
    5890    1.1241656   -1314.5105    11.775568    21843.293    3.1851847    27.953704 
    5900    1.1219918   -1314.5379    16.506927    21839.867    3.1856842    27.952243 
    5910    1.1193178   -1314.5645    20.185732    21837.148    3.1860809    27.951083 
    5920    1.1161405   -1314.5902    22.573426    21835.291    3.1863519     27.95029 
    5930    1.1124649   -1314.6153     23.51545    21834.395    3.1864827    27.949908 
    5940    1.1083046   -1314.6397     22.95184      21834.5    3.1864673    27.949953 
    5950    1.1036813   -1314.6634    20.921317    21835.581    3.1863096    27.950414 
    5960    1.0986241   -1314.6863    17.558525     21837.55    3.1860222    27.951255 
    5970    1.0931685   -1314.7082    13.084663    21840.265    3.1856261    27.952413 
    5980    1.0873559   -1314.7289    7.7922759    21843.535    3.1851493    27.953808 
    5990    1.0812323   -1314.7484    2.0254191    21847.134    3.1846246    27.955343 
    6000    1.0748466   -1314.7665   -3.8432689    21850.817    3.1840878    27.956914 
    6010    1.0682501   -1314.7834   -9.4369234    21854.333    3.1835755    27.958413 
    6020    1.0614945   -1314.7991   -14.398573    21857.446    3.1831222     27.95974 
    6030    1.0546315   -1314.8139     -18.4135    21859.942    3.1827587    27.960805 
    6040    1.0477113   -1314.8279   -21.228555    21861.652    3.1825097    27.961534 
    6050     1.040782   -1314.8413   -22.667402    21862.456    3.1823927    27.961877 
    6060    1.0338891   -1314.8542   -22.640962    21862.294    3.1824163    27.961807 
    6070     1.027075   -1314.8667   -21.152603    21861.167    3.1825804    27.961327 
    6080    1.0203789   -1314.8786   -18.297845     21859.14    3.1828754    27.960463 
    6090     1.013837   -1314.8899   -14.258612    21856.337    3.1832837    27.959268 
    6100    1.0074826   -1314.9004   -9.2922775    21852.929    3.1837801    27.957814 
    6110    1.0013465   -1314.9101   -3.7160061     21849.13    3.1843337    27.956194 
    6120   0.99545773   -1314.9188    2.1128419    21845.178    3.1849098    27.954508 
    6130   0.98984375   -1314.9266    7.8191965     21841.32    3.1854723    27.952863 
    6140   0.98453146   -1314.9335    13.034339      21837.8    3.1859858    27.951361 
    6150   0.97954759   -1314.9397    17.420011    21834.838    3.1864179    27.950097 
    6160   0.97491931   -1314.9453    20.690916    21832.621    3.1867416    27.949151 
    6170   0.97067465   -1314.9507    22.633975    21831.285    3.1869365    27.948581 
    6180   0.96684284   -1314.9558    23.122851    21830.913    3.1869909    27.948423 
    6190   0.96345445   -1314.9607     22.12659    21831.524    3.1869016    27.948683 
    6200    0.9605413   -1314.9654    19.711677    21833.075    3.1866752    27.949345 
    6210   0.95813613   -1314.9699    16.037333    21835.463    3.1863267    27.950364 
    6220   0.95627209   -1314.9738    11.344463    21838.531    3.1858791    27.951673 
    6230   0.95498177   -1314.9773    5.9391355    21842.079    3.1853616    27.953187 
    6240   0.95429604   -1314.9801   0.17191632    21845.877    3.1848078    27.954807 
    6250   0.95424248   -1314.9822   -5.5853802     21849.68    3.1842535    27.956429 
    6260   0.95484347   -1314.9838   -10.963866    21853.242    3.1837345    27.957948 
    6270   0.95611405   -1314.9849   -15.621061    21856.334    3.1832841    27.959266 
    6280   0.95805954   -1314.9857   -19.262236    21858.758    3.1829311      27.9603 
    6290   0.96067307   -1314.9864   -21.658416     21860.36    3.1826979    27.960983 
    6300    0.9639334   -1314.9872   -22.660115    21861.037    3.1825992    27.961272 
    6310   0.96780312   -1314.9881   -22.206165    21860.749    3.1826412    27.961149 
    6320   0.97222764   -1314.9892   -20.327236    21859.515    3.1828209    27.960623 
    6330   0.97713529   -1314.9902   -17.143925    21857.416    3.1831265    27.959728 
    6340   0.98243851   -1314.9912   -12.859486     21854.59    3.1835381    27.958523 
    6350   0.98803634   -1314.9919     -7.74754     21851.22    3.1840291    27.957086 
    6360   0.99381778   -1314.9923   -2.1353205    21847.524    3.1845677    27.955509 
    6370   0.99966575   -1314.9922     3.616669    21843.743     3.185119    27.953896 
    6380    1.0054612   -1314.9917    9.1374913    21840.119    3.1856474    27.952351 
    6390    1.0110869   -1314.9909    14.069719     21836.89    3.1861186    27.950973 
    6400    1.0164304     -1314.99    18.092933    21834.262     3.186502    27.949852 
    6410    1.0213868    -1314.989    20.945126    21832.407    3.1867728     27.94906 
    6420    1.0258599   -1314.9881    22.440443    21831.444    3.1869134    27.948649 
    6430    1.0297638   -1314.9875    22.481857    21831.436    3.1869146    27.948645 
    6440    1.0330233   -1314.9871     21.06779    21832.383    3.1867762     27.94905 
    6450    1.0355742   -1314.9868     18.29213    21834.226    3.1865074    27.949836 
    6460    1.0373644   -1314.9865    14.337648    21836.844    3.1861253    27.950953 
    6470    1.0383542   -1314.9861    9.4633668     21840.07    3.1856547     27.95233 
    6480     1.038517   -1314.9855    3.9868942    21843.696    3.1851259    27.953876 
    6490    1.0378408   -1314.9844   -1.7368919    21847.488     3.184573    27.955494 
    6500    1.0363293    -1314.983   -7.3392282    21851.204    3.1840315    27.957079 
    6510    1.0340028   -1314.9813   -12.461277    21854.604    3.1835361    27.958529 
    6520    1.0308995   -1314.9794   -16.776817     21857.47    3.1831186    27.959751 
    6530    1.0270754   -1314.9774   -20.012444    21859.619    3.1828057    27.960667 
    6540    1.0226043   -1314.9755   -21.964186    21860.914    3.1826172    27.961219 
    6550    1.0175752   -1314.9738   -22.509692    21861.272    3.1825651    27.961372 
    6560    1.0120904   -1314.9723   -21.615429     21860.67    3.1826526    27.961115 
    6570    1.0062612    -1314.971   -19.338585    21859.149    3.1828742    27.960467 
    6580    1.0002039   -1314.9696   -15.823609    21856.805    3.1832154    27.959467 
    6590   0.99403526   -1314.9681   -11.293514    21853.791    3.1836545    27.958182 
    6600   0.98786876   -1314.9662   -6.0363731      21850.3    3.1841631    27.956693 
    6610   0.98181187   -1314.9639  -0.38762409    21846.557    3.1847088    27.955097 
    6620   0.97596435    -1314.961    5.2908852    21842.802    3.1852562    27.953495 
    6630   0.97041776   -1314.9576    10.633927    21839.277    3.1857703    27.951991 
    6640   0.96525601   -1314.9538    15.296586    21836.209     3.186218    27.950682 
    6650   0.96055641   -1314.9497    18.977029    21833.795    3.1865702    27.949652 
    6660   0.95639097   -1314.9454    21.436747    21832.191    3.1868043    27.948968 
    6670   0.95282745    -1314.941    22.516724      21831.5    3.1869052    27.948673 
    6680   0.94992959   -1314.9366    22.148294    21831.767    3.1868662    27.948787 
    6690   0.94775631   -1314.9321    20.357791    21832.975    3.1866899    27.949302 
    6700    0.9463591   -1314.9274    17.264618    21835.047    3.1863875    27.950187 
    6710   0.94577751   -1314.9224    13.072906    21837.852    3.1859783    27.951383 
    6720    0.9460323    -1314.917    8.0574358     21841.21    3.1854884    27.952816 
    6730   0.94711688   -1314.9109    2.5449582    21844.907    3.1849492    27.954393 
    6740   0.94898803    -1314.904   -3.1076599     21848.71    3.1843948    27.956015 
    6750   0.95155829   -1314.8965   -8.5368468    21852.378    3.1838604    27.957579 
    6760   0.95469317   -1314.8883   -13.395685    21855.679    3.1833795    27.958987 
    6770   0.95821599   -1314.8796    -17.37572    21858.406    3.1829823     27.96015 
    6780    0.9619216   -1314.8705   -20.225931    21860.391    3.1826934    27.960996 
    6790   0.96559701   -1314.8612   -21.767863    21861.512    3.1825302    27.961474 
    6800   0.96904389   -1314.8516   -21.906177    21861.704    3.1825021    27.961556 
    6810   0.97209748   -1314.8418   -20.634171    21860.963      3.18261     27.96124 
    6820   0.97463765   -1314.8318   -18.034042    21859.345    3.1828457     27.96055 
    6830   0.97659151   -1314.8215   -14.271891     21856.96     3.183193    27.959533 
    6840   0.97792923   -1314.8105   -9.5876982     21853.97    3.1836284    27.958258 
    6850   0.97865641    -1314.799   -4.2807146    21850.577    3.1841228    27.956811 
    6860   0.97880541   -1314.7867    1.3090111    21847.006    3.1846433    27.955288 
    6870   0.97842755   -1314.7737    6.8219872    21843.495    3.1851551    27.953791 
    6880    0.9775868   -1314.7601     11.90228     21840.28    3.1856241    27.952419 
    6890   0.97635481    -1314.746    16.220709    21837.575    3.1860187    27.951265 
    6900   0.97480724   -1314.7316    19.496661    21835.563    3.1863122    27.950407 
    6910   0.97302074    -1314.717    21.516947    21834.383    3.1864844    27.949903 
    6920   0.97107054   -1314.7024    22.150276    21834.119    3.1865229    27.949791 
    6930    0.9690283    -1314.688    21.356192    21834.797     3.186424     27.95008 
    6940   0.96696017   -1314.6736    19.187768    21836.382    3.1861926    27.950756 
    6950   0.96492526   -1314.6592    15.787832    21838.782    3.1858425     27.95178 
    6960    0.9629743   -1314.6448    11.379053    21841.851    3.1853949    27.953089 
    6970   0.96114891   -1314.6302    6.2486727    21845.401    3.1848772    27.954604 
    6980   0.95948145   -1314.6155   0.72911182    21849.214    3.1843214     27.95623 
    6990   0.95799544   -1314.6004    -4.824095    21853.054    3.1837618    27.957868 
    7000   0.95670673   -1314.5853   -10.055445    21856.686    3.1832328    27.959416 
    7010   0.95562515   -1314.5702   -14.632138    21859.886    3.1827669    27.960781 
    7020   0.95475655   -1314.5552   -18.264867    21862.459    3.1823923    27.961878 
    7030   0.95410483   -1314.5406   -20.725529    21864.251    3.1821314    27.962642 
    7040   0.95367387   -1314.5266   -21.860939    21865.158    3.1819994    27.963029 
    7050   0.95346898   -1314.5132   -21.601891    21865.133    3.1820031    27.963018 
    7060   0.95349776   -1314.5005   -19.967146    21864.187    3.1821407    27.962615 
    7070   0.95377039   -1314.4884   -17.062206    21862.392    3.1824021    27.961849 
    7080   0.95429932   -1314.4769   -13.072914    21859.871     3.182769    27.960775 
    7090   0.95509855   -1314.4657   -8.2541905    21856.798    3.1832165    27.959464 
    7100   0.95618258   -1314.4549   -2.9144223    21853.377    3.1837148    27.958006 
    7110   0.95756531   -1314.4443    2.6036883    21849.838    3.1842305    27.956496 
    7120   0.95925886    -1314.434    7.9447791    21846.414    3.1847296    27.955036 
    7130   0.96127258   -1314.4242     12.76369    21843.332    3.1851788    27.953721 
    7140   0.96361212   -1314.4148    16.748061    21840.798    3.1855484     27.95264 
    7150   0.96627878   -1314.4062    19.639108     21838.98    3.1858136    27.951865 
    7160   0.96926895   -1314.3984    21.249051        21838    3.1859567    27.951446 
    7170   0.97257382   -1314.3915    21.473868    21837.924    3.1859677    27.951414 
    7180    0.9761792   -1314.3856    20.300354    21838.761    3.1858456    27.951771 
    7190   0.98006539   -1314.3805    17.806929    21840.461    3.1855976    27.952496 
    7200   0.98420727   -1314.3763    14.158125    21842.917    3.1852395    27.953544 
    7210   0.98857432   -1314.3727    9.5932164    21845.972    3.1847939    27.954847 
    7220   0.99313075   -1314.3696    4.4098985    21849.433    3.1842895    27.956323 
    7230   0.99783564   -1314.3669   -1.0557074    21853.078    3.1837584    27.957878 
    7240     1.002643   -1314.3646   -6.4512346    21856.674    3.1832345    27.959412 
    7250    1.0075019   -1314.3627   -11.430875    21859.993    3.1827513    27.960826 
    7260    1.0123567   -1314.3613   -15.677312     21862.82    3.1823397    27.962032 
    7270    1.0171466   -1314.3605   -18.921438    21864.977    3.1820257    27.962951 
    7280    1.0218065   -1314.3604   -20.958769    21866.325    3.1818296    27.963526 
    7290    1.0262663   -1314.3611   -21.661704    21866.778    3.1817636    27.963719 
    7300    1.0304514   -1314.3625   -20.987054    21866.308    3.1818321    27.963519 
    7310    1.0342825   -1314.3647   -18.978512    21864.944    3.1820306    27.962937 
    7320    1.0376761   -1314.3674   -15.763957    21862.773    3.1823466    27.962012 
    7330    1.0405448   -1314.3705   -11.547722    21859.933      3.18276    27.960801 
    7340     1.042798   -1314.3739    -6.598189    21856.605    3.1832446    27.959382 
    7350    1.0443432   -1314.3772   -1.2312885    21853.002    3.1837695    27.957846 
    7360    1.0450886   -1314.3805    4.2092109    21849.351    3.1843014    27.956289 
    7370    1.0449472   -1314.3838    9.3735399    21845.885    3.1848066     27.95481 
    7380    1.0438431    -1314.387    13.928552    21842.823    3.1852531    27.953504 
    7390    1.0417212   -1314.3902    17.579648    21840.358    3.1856126    27.952452 
    7400    1.0385607   -1314.3937    20.090472    21838.644    3.1858627    27.951721 
    7410    1.0343906   -1314.3974    21.298905    21837.786    3.1859878    27.951355 
    7420    1.0293061   -1314.4014    21.128125    21837.836    3.1859805    27.951376 
    7430    1.0234784   -1314.4057    19.591839    21838.784    3.1858423    27.951781 
    7440    1.0171533   -1314.4102    16.793237    21840.564    3.1855826     27.95254 
    7450    1.0106313   -1314.4147    12.917755    21843.057    3.1852191    27.953604 
    7460    1.0042324   -1314.4192    8.2202435    21846.096    3.1847759      27.9549 
    7470   0.99825305   -1314.4234     3.007561    21849.482    3.1842823    27.956344 
    7480   0.99292846   -1314.4273   -2.3820026    21852.993    3.1837708    27.957842 
    7490   0.98841126   -1314.4309   -7.6009641    21856.399    3.1832747    27.959294 
    7500   0.98476868   -1314.4341   -12.314993    21859.477    3.1828264    27.960607 
    7510   0.98199447   -1314.4372   -16.223947    21862.028     3.182455    27.961694 
    7520   0.98002786   -1314.4402    -19.08037    21863.884    3.1821848    27.962486 
    7530   0.97877317   -1314.4431   -20.704454    21864.926    3.1820333     27.96293 
    7540   0.97811611    -1314.446   -20.994745    21865.083    3.1820103    27.962997 
    7550   0.97793554   -1314.4489   -19.934065    21864.347    3.1821175    27.962683 
    7560   0.97811107   -1314.4516   -17.590421    21862.761    3.1823482    27.962007 
    7570   0.97852765    -1314.454   -14.112853    21860.429    3.1826877    27.961013 
    7580   0.97907808   -1314.4559    -9.722398    21857.499    3.1831144    27.959763 
    7590   0.97966461    -1314.457   -4.6986205     21854.16    3.1836007    27.958339 
    7600    0.9801999   -1314.4572   0.63765533    21850.626    3.1841157    27.956832 
    7610   0.98060796   -1314.4565    5.9444674    21847.124     3.184626    27.955339 
    7620   0.98082507   -1314.4548    10.880541    21843.881    3.1850989    27.953955 
    7630   0.98080073   -1314.4521    15.127449    21841.105    3.1855036    27.952771 
    7640   0.98049862   -1314.4485    18.410623    21838.977     3.185814    27.951863 
    7650   0.97989734   -1314.4442    20.517718    21837.635    3.1860098    27.951291 
    7660   0.97899098   -1314.4392    21.312942    21837.168     3.186078    27.951091 
    7670   0.97778923   -1314.4336    20.746261    21837.607    3.1860139    27.951279 
    7680   0.97631699   -1314.4272    18.856718    21838.928    3.1858212    27.951843 
    7690   0.97461323   -1314.4201    15.769623     21841.05    3.1855117    27.952748 
    7700   0.97272895   -1314.4121    11.687841     21843.84    3.1851048    27.953938 
    7710   0.97072402   -1314.4031    6.8778739    21847.124     3.184626    27.955339 
    7720   0.96866249    -1314.393     1.651848    21850.698    3.1841052    27.956863 
    7730   0.96660617   -1314.3819   -3.6532478    21854.338    3.1835748    27.958415 
    7740   0.96460615   -1314.3698   -8.6975712    21857.818    3.1830679    27.959899 
    7750   0.96269257   -1314.3569   -13.160196    21860.925    3.1826156    27.961224 
    7760   0.96086354   -1314.3434   -16.759269    21863.467    3.1822456    27.962308 
    7770   0.95907571   -1314.3295   -19.269378    21865.292      3.18198    27.963086 
    7780    0.9572407   -1314.3153   -20.535183    21866.293    3.1818342    27.963513 
    7790   0.95523257   -1314.3012   -20.480625    21866.419     3.181816    27.963566 
    7800   0.95291089   -1314.2871   -19.113279    21865.671    3.1819248    27.963247 
    7810   0.95015916   -1314.2731   -16.523649     21864.11    3.1821519    27.962582 
    7820   0.94693021   -1314.2592   -12.879486    21861.847    3.1824813    27.961617 
    7830   0.94328116   -1314.2455    -8.415435     21859.04    3.1828901     27.96042 
    7840   0.93937984    -1314.232    -3.418581    21855.878    3.1833505    27.959072 
    7850   0.93547814   -1314.2186    1.7893601    21852.575    3.1838316    27.957664 
    7860   0.93186751   -1314.2056    6.8722594    21849.354     3.184301     27.95629 
    7870   0.92883849   -1314.1931     11.50107    21846.431    3.1847271    27.955043 
    7880   0.92665469   -1314.1813    15.375259    21844.001    3.1850813    27.954007 
    7890   0.92553938   -1314.1706    18.242702    21842.229    3.1853397    27.953251 
    7900   0.92566803    -1314.161    19.916591    21841.236    3.1854846    27.952827 
    7910   0.92716286   -1314.1528    20.288056    21841.091    3.1855057    27.952765 
    7920    0.9300882   -1314.1461     19.33352    21841.809     3.185401    27.953072 
    7930   0.93444813    -1314.141    17.116205    21843.349    3.1851764    27.953728 
    7940    0.9401882   -1314.1372    13.781677    21845.615     3.184846    27.954695 
    7950   0.94720314   -1314.1348     9.547808    21848.465    3.1844306    27.955911 
    7960      0.95535   -1314.1337     4.689953    21851.718    3.1839566    27.957298 
    7970   0.96446454   -1314.1338   -0.4775078    21855.166    3.1834542    27.958769 
    7980   0.97437659    -1314.135   -5.6219042    21858.591    3.1829555    27.960229 
    7990   0.98492101   -1314.1374   -10.413831    21861.771    3.1824924    27.961585 
    8000   0.99594233    -1314.141   -14.548099    21864.505    3.1820945     27.96275 
    8010    1.0072936    -1314.146   -17.762794    21866.615    3.1817875    27.963649 
    8020    1.0188315   -1314.1525   -19.855347    21867.965     3.181591    27.964225 
    8030    1.0304098   -1314.1604   -20.694769    21868.467     3.181518    27.964439 
    8040     1.041873   -1314.1698   -20.229451    21868.086    3.1815734    27.964277 
    8050    1.0530508   -1314.1806   -18.490173    21866.844    3.1817541    27.963747 
    8060    1.0637538   -1314.1927   -15.588185    21864.815    3.1820493    27.962882 
    8070    1.0737709   -1314.2059   -11.708466    21862.126    3.1824408    27.961736 
    8080    1.0828699   -1314.2199   -7.0984645    21858.942    3.1829043    27.960378 
    8090    1.0908015   -1314.2347   -2.0528698    21855.461    3.1834113    27.958894 
    8100    1.0973144   -1314.2502    3.1048023    21851.898    3.1839303    27.957375 
    8110    1.1021845   -1314.2662    8.0428021    21848.473    3.1844294    27.955914 
    8120    1.1052677   -1314.2828    12.442683    21845.397    3.1848779    27.954602 
    8130    1.1065757   -1314.3001    16.020387    21842.854    3.1852486    27.953517 
    8140    1.1063547   -1314.3182    18.545354    21840.997    3.1855194    27.952725 
    8150    1.1051185   -1314.3372     19.85611    21839.931    3.1856748    27.952271 
    8160    1.1035769    -1314.357    19.870985    21839.712    3.1857068    27.952177 
    8170    1.1024515   -1314.3778    18.593084    21840.338    3.1856155    27.952444 
    8180    1.1022658   -1314.3994    16.109397    21841.754     3.185409    27.953048 
    8190    1.1032285   -1314.4217     12.58445    21843.854    3.1851028    27.953944 
    8200    1.1052562   -1314.4446    8.2491409    21846.486     3.184719    27.955067 
    8210    1.1080815   -1314.4678    3.3854548    21849.466    3.1842847    27.956338 
    8220    1.1113679   -1314.4915   -1.6920182    21852.587    3.1838299    27.957669 
    8230    1.1147897   -1314.5153   -6.6565175    21855.632    3.1833864    27.958967 
    8240    1.1180756   -1314.5394   -11.190079    21858.389    3.1829848    27.960143 
    8250    1.1210283   -1314.5638   -15.003629    21860.667    3.1826532    27.961114 
    8260    1.1235285   -1314.5884   -17.854949    21862.302    3.1824151    27.961811 
    8270    1.1255279   -1314.6134   -19.563512    21863.175     3.182288    27.962183 
    8280    1.1270327   -1314.6387   -20.021395    21863.213    3.1822825      27.9622 
    8290    1.1280801   -1314.6643   -19.199749    21862.399    3.1824011    27.961852 
    8300    1.1287145     -1314.69   -17.150505    21860.767    3.1826385    27.961157 
    8310    1.1289676   -1314.7156   -14.003235    21858.408     3.182982    27.960151 
    8320    1.1288483    -1314.741    -9.957304    21855.457    3.1834118    27.958893 
    8330    1.1283414   -1314.7658   -5.2696853    21852.087    3.1839028    27.957455 
    8340    1.1274138   -1314.7899  -0.23906261    21848.498    3.1844257    27.955925 
    8350    1.1260234   -1314.8133    4.8129191    21844.906    3.1849494    27.954393 
    8360    1.1241283   -1314.8357    9.5621676    21841.524    3.1854425     27.95295 
    8370    1.1216932   -1314.8573    13.703145    21838.555    3.1858756    27.951683 
    8380    1.1186936    -1314.878    16.968962    21836.174    3.1862231    27.950667 
    8390    1.1151176   -1314.8979    19.149159    21834.518    3.1864647    27.949961 
    8400    1.1109657   -1314.9171    20.103853    21833.678    3.1865873    27.949602 
    8410    1.1062499   -1314.9355    19.773173    21833.694    3.1865849    27.949609 
    8420    1.1009926   -1314.9532    18.181249    21834.551    3.1864598    27.949975 
    8430    1.0952254   -1314.9699    15.434429     21836.18    3.1862221     27.95067 
    8440    1.0889879   -1314.9856    11.713892    21838.463     3.185889    27.951644 
    8450    1.0823271   -1315.0002    7.2632267    21841.241    3.1854838    27.952829 
    8460    1.0752958   -1315.0135    2.3719776    21844.325    3.1850341    27.954145 
    8470    1.0679525   -1315.0256   -2.6436233    21847.505    3.1845705    27.955501 
    8480    1.0603593   -1315.0365   -7.4613315    21850.569    3.1841239    27.956808 
    8490    1.0525816   -1315.0462    -11.77357    21853.312    3.1837243    27.957978 
    8500    1.0446865    -1315.055   -15.306796     21855.55    3.1833983    27.958932 
    8510    1.0367416   -1315.0629   -17.838401    21857.133    3.1831677    27.959607 
    8520    1.0288143   -1315.0702   -19.210231    21857.955    3.1830481    27.959958 
    8530    1.0209709    -1315.077   -19.338032    21857.957    3.1830477    27.959959 
    8540    1.0132757   -1315.0832   -18.216367    21857.136    3.1831672    27.959609 
    8550    1.0057906    -1315.089   -15.918811    21855.541    3.1833995    27.958929 
    8560   0.99857477   -1315.0943   -12.593387    21853.272    3.1837302    27.957961 
    8570   0.99168442    -1315.099   -8.4535088     21850.47    3.1841384    27.956766 
    8580    0.9851726    -1315.103   -3.7648265    21847.313    3.1845985    27.955419 
    8590   0.97908924   -1315.1064    1.1713075    21844.002    3.1850812    27.954007 
    8600   0.97348124   -1315.1091    6.0368712    21840.747    3.1855559    27.952618 
    8610   0.96839247   -1315.1112    10.517569    21837.754    3.1859925    27.951341 
    8620   0.96386384   -1315.1129    14.323301    21835.213    3.1863632    27.950257 
    8630   0.95993337   -1315.1143    17.207332    21833.286    3.1866445    27.949435 
    8640   0.95663604   -1315.1155    18.982778    21832.093    3.1868186    27.948926 
    8650   0.95400361   -1315.1167    19.535193    21831.709    3.1868747    27.948762 
    8660   0.95206411   -1315.1178     18.83028    21832.155    3.1868095    27.948953 
    8670   0.95084105   -1315.1188    16.916122    21833.401    3.1866276    27.949484 
    8680   0.95035216   -1315.1197    13.919759    21835.365    3.1863411    27.950322 
    8690   0.95060751   -1315.1203    10.038395    21837.917    3.1859686    27.951411 
    8700   0.95160707   -1315.1204    5.5259312    21840.893    3.1855346    27.952681 
    8710   0.95333754   -1315.1201   0.67587127      21844.1    3.1850669    27.954049 
    8720   0.95576872   -1315.1191   -4.1981296    21847.332    3.1845958    27.955427 
    8730   0.95884974   -1315.1176   -8.7826894     21850.38    3.1841515    27.956727 
    8740   0.96250583   -1315.1155   -12.784732     21853.05    3.1837624    27.957866 
    8750   0.96663641   -1315.1129   -15.949877    21855.173    3.1834532    27.958771 
    8760    0.9711155   -1315.1099   -18.078108    21856.614    3.1832434    27.959386 
    8770   0.97579501   -1315.1066   -19.035897    21857.282     3.183146    27.959671 
    8780   0.98051112   -1315.1028   -18.764148     21857.14    3.1831667     27.95961 
    8790   0.98509304   -1315.0986   -17.281623    21856.199    3.1833038    27.959209 
    8800   0.98937293   -1315.0938   -14.683674    21854.524    3.1835478    27.958494 
    8810   0.99319554   -1315.0883   -11.136379    21852.226    3.1838824    27.957515 
    8820   0.99642612   -1315.0819   -6.8663489     21849.46    3.1842856    27.956335 
    8830   0.99895591   -1315.0745   -2.1467304    21846.406    3.1847308    27.955032 
    8840    1.0007051   -1315.0661    2.7198637    21843.266    3.1851885    27.953693 
    8850    1.0016238   -1315.0565    7.4205392    21840.248    3.1856286    27.952406 
    8860    1.0016907   -1315.0459    11.652261    21837.551    3.1860221    27.951255 
    8870    1.0009121   -1315.0343    15.141652    21835.354    3.1863426    27.950318 
    8880   0.99931841   -1315.0219    17.663092    21833.805    3.1865687    27.949657 
    8890    0.9969622   -1315.0087    19.053809    21833.009    3.1866849    27.949317 
    8900   0.99391444   -1314.9948    19.224834    21833.025    3.1866826    27.949324 
    8910   0.99026114   -1314.9804    18.166959    21833.857    3.1865611    27.949679 
    8920   0.98609955   -1314.9653    15.951249    21835.461    3.1863271    27.950363 
    8930   0.98153377   -1314.9494     12.72405     21837.74    3.1859946    27.951335 
    8940   0.97667012   -1314.9328     8.696925    21840.557    3.1855836    27.952537 
    8950   0.97161189   -1314.9154    4.1322799     21843.74    3.1851194    27.953895 
    8960   0.96645394   -1314.8971   -0.6741961    21847.094    3.1846304    27.955326 
    8970     0.961277    -1314.878   -5.4130068    21850.415    3.1841464    27.956742 
    8980   0.95614236   -1314.8581   -9.7808744    21853.501    3.1836968    27.958058 
[...]
   37860    125.78711   -1046.2938    9931.3873    19330.583    3.5992149    26.837887 
   37870    127.73065   -1048.5543    9900.1169    19330.802     3.599174    26.837988 
   37880     129.2651   -1050.3783    9874.0986    19330.993    3.5991385    26.838077 
   37890    130.30005   -1051.5888    9855.0922    19331.149    3.5991095    26.838149 
   37900    130.77595   -1052.4135    9841.7798    19331.264    3.5990881    26.838202 
   37910    130.66432   -1052.6995    9835.2107    19331.335    3.5990749    26.838235 
   37920     129.9677   -1052.6785    9833.4676     19331.36    3.5990702    26.838246 
   37930    128.72146   -1052.1828    9837.1309    19331.339    3.5990741    26.838237 
   37940    126.99183    -1051.104    9846.1464    19331.273    3.5990863    26.838206 
   37950    124.87978   -1049.8704    9856.6459    19331.165    3.5991065    26.838156 
   37960    122.52665   -1048.8354    9865.4044    19331.017    3.5991339    26.838088 
   37970    120.11989   -1047.9403    9872.3921    19330.833    3.5991682    26.838003 
   37980    117.87751   -1047.1711    9877.6747    19330.614     3.599209    26.837901 
   37990    115.99235   -1046.5936    9881.0516    19330.362    3.5992559    26.837785 
   38000    114.57866   -1046.2848    9882.3505    19330.079    3.5993087    26.837653 
   38010    113.64757   -1045.9434    9884.0155    19329.764    3.5993674    26.837508 
   38020    113.12124   -1045.8967     9884.061    19329.418    3.5994318    26.837347 
   38030    112.88395   -1045.9215    9884.3386    19329.041    3.5995019    26.837173 
   38040    112.82338   -1045.9956    9885.3214    19328.634    3.5995777    26.836985 
   38050    112.85015   -1045.9832    9888.2397    19328.197    3.5996592    26.836782 
   38060    112.90743   -1045.7449    9894.2692     19327.73     3.599746    26.836567 
   38070    112.96653   -1045.3096    9903.2787    19327.237     3.599838    26.836338 
   38080     113.0215   -1044.8744    9913.8249    19326.718    3.5999346    26.836098 
   38090    113.08506   -1044.1409    9927.7895    19326.178    3.6000351    26.835848 
   38100    113.17847   -1043.3615    9943.1024     19325.62     3.600139     26.83559 
   38110    113.33208   -1042.6058    9958.8656    19325.049    3.6002455    26.835326 
   38120    113.58085   -1041.8299    9974.8542    19324.469    3.6003535    26.835057 
   38130    113.96682   -1041.0057    9990.6538    19323.884    3.6004625    26.834786 
   38140    114.53018   -1040.4533    10003.373    19323.299    3.6005714    26.834516 
   38150    115.30705   -1040.1262    10012.723    19322.718    3.6006798    26.834246 
   38160     116.3178   -1039.9625    10018.662    19322.142    3.6007871     26.83398 
   38170    117.55771    -1040.386    10017.994    19321.574    3.6008929    26.833717 
   38180    118.99134   -1040.9931    10013.581    19321.014    3.6009974    26.833458 
   38190    120.55301   -1041.6317    10006.865    19320.459    3.6011007    26.833201 
   38200    122.15115   -1042.7241    9995.6132    19319.909    3.6012033    26.832946 
   38210    123.67331   -1043.7238    9984.5786     19319.36    3.6013057    26.832692 
   38220    125.00064   -1044.5603    9975.3132    19318.809    3.6014084    26.832437 
   38230     126.0258    -1045.197     9969.085    19318.253    3.6015119     26.83218 
   38240    126.66266   -1045.6205    9966.7695    19317.692    3.6016166     26.83192 
   38250    126.86504   -1045.6952    9969.7697    19317.124    3.6017226    26.831657 
   38260    126.62906   -1045.2399     9979.424     19316.55    3.6018296    26.831391 
   38270     125.9904   -1044.3436    9994.8188    19315.973    3.6019372    26.831124 
   38280    125.01753    -1043.159    10014.287    19315.397    3.6020446    26.830857 
   38290     123.8051   -1041.8464    10035.916    19314.827    3.6021508    26.830593 
   38300    122.45659   -1040.2537    10059.861    19314.271    3.6022546    26.830336 
   38310    121.07374   -1038.7157    10082.894    19313.733    3.6023549    26.830087 
   38320    119.75462   -1037.3403    10103.459    19313.221    3.6024505    26.829849 
   38330    118.58228   -1036.3388    10119.399    19312.739    3.6025403    26.829626 
   38340    117.62745   -1035.3436    10132.759    19312.293    3.6026235     26.82942 
   38350    116.93894      -1034.6    10141.486    19311.885    3.6026995    26.829231 
   38360    116.54638   -1034.3321    10143.911    19311.519    3.6027679    26.829061 
   38370    116.44896    -1034.652    10139.384    19311.194    3.6028285    26.828911 
   38380    116.61726   -1035.1204    10131.366    19310.909    3.6028816    26.828779 
   38390    116.99901   -1035.9334    10119.129    19310.662    3.6029277    26.828665 
   38400    117.52136   -1036.8433    10105.158    19310.449    3.6029674    26.828566 
   38410    118.10622   -1037.8192    10090.454    19310.267    3.6030015    26.828482 
   38420    118.68179   -1038.8901    10075.497    19310.111    3.6030306    26.828409 
   38430    119.19296   -1039.7914    10062.645    19309.976    3.6030557    26.828347 
   38440    119.60484   -1040.4104    10052.962     19309.86    3.6030774    26.828293 
   38450    119.90458   -1041.0096    10044.636    19309.759    3.6030962    26.828246 
   38460    120.10645   -1041.4725    10038.259    19309.671    3.6031126    26.828206 
   38470    120.24228   -1041.7563    10033.702    19309.595    3.6031269     26.82817 
   38480    120.35452    -1042.104    10028.749    19309.528    3.6031393    26.828139 
   38490    120.48438   -1042.4625    10023.292     19309.47    3.6031502    26.828112 
   38500    120.65398   -1042.8749     10016.72    19309.419    3.6031597    26.828089 
   38510    120.85819   -1043.4448    10008.267    19309.373    3.6031683    26.828067 
   38520    121.06299   -1044.0632    9998.9434    19309.329    3.6031764    26.828047 
   38530     121.2078    -1044.779    9988.9011    19309.286    3.6031845    26.828027 
   38540     121.2206   -1045.3032     9980.784     19309.24    3.6031931    26.828006 
   38550    121.03177   -1045.7134    9974.6642    19309.189    3.6032026    26.827982 
   38560    120.59677   -1045.7717    9972.6777    19309.131    3.6032134    26.827956 
   38570    119.90256   -1045.5454    9974.5848    19309.067    3.6032254    26.827926 
   38580     118.9757   -1045.0994    9979.8978    19308.996    3.6032387    26.827893 
   38590    117.87224   -1044.4084    9988.4927     19308.92    3.6032529    26.827858 
   38600     116.6724   -1043.4756    9999.8565    19308.841    3.6032676    26.827821 
   38610    115.46878   -1042.7375    10010.332    19308.763    3.6032822    26.827785 
   38620    114.35543   -1041.9717     10020.79    19308.688    3.6032961     26.82775 
   38630     113.4234   -1041.3246    10029.538    19308.619    3.6033089    26.827718 
   38640    112.74855   -1040.7559    10036.253    19308.559    3.6033201    26.827691 
   38650    112.38683   -1040.6204    10037.993     19308.51    3.6033294    26.827668 
   38660    112.37077   -1040.7289    10035.829    19308.471    3.6033366     26.82765 
   38670    112.70653   -1041.2028    10028.939    19308.442    3.6033419    26.827637 
   38680    113.37163   -1041.8561    10018.925    19308.422    3.6033457    26.827627 
   38690    114.31837   -1042.6424     10006.67    19308.408    3.6033484     26.82762 
   38700    115.47989   -1043.6413    9992.3631    19308.395    3.6033508    26.827615 
   38710    116.77591   -1044.6986     9977.914     19308.38    3.6033535    26.827608 
   38720    118.11972   -1045.7095    9964.8919     19308.36    3.6033573    26.827598 
   38730    119.42547   -1046.4816     9955.415     19308.33    3.6033629    26.827585 
   38740    120.60902   -1046.9555      9950.55    19308.289    3.6033707    26.827565 
   38750     121.5967   -1047.1903     9950.387    19308.234    3.6033809     26.82754 
   38760     122.3282   -1047.0427    9956.2236    19308.165    3.6033936    26.827508 
   38770    122.76492    -1046.371    9969.1227    19308.086    3.6034085    26.827471 
   38780    122.89653   -1045.3111    9987.9695    19307.998    3.6034249    26.827431 
   38790    122.74191   -1043.8329    10012.538    19307.907    3.6034418    26.827389 
   38800    122.35099   -1042.2105    10040.209    19307.821    3.6034579    26.827349 
   38810     121.8073   -1040.3396    10070.744    19307.747    3.6034718    26.827314 
   38820     121.2187   -1038.7595    10099.167    19307.692    3.6034819    26.827289 
   38830      120.713   -1037.2496    10125.648    19307.666    3.6034868    26.827277 
   38840    120.41719   -1036.0807    10146.918    19307.675    3.6034852    26.827281 
   38850    120.43907   -1035.2299     10161.97    19307.725    3.6034759    26.827304 
   38860    120.83988   -1035.1293    10167.046    19307.819    3.6034582    26.827348 
   38870    121.62053   -1035.5172    10163.787     19307.96     3.603432    26.827413 
   38880    122.71964   -1036.4193    10152.394    19308.146    3.6033973    26.827499 
   38890    124.03038    -1037.681    10134.776    19308.374    3.6033548    26.827605 
   38900    125.42224   -1039.3666    10111.601    19308.638    3.6033054    26.827727 
   38910    126.75364   -1040.8908    10088.169    19308.933    3.6032504    26.827864 
   38920    127.88542   -1042.2641     10065.64    19309.251     3.603191    26.828011 
   38930    128.68693   -1043.4618    10045.351    19309.587    3.6031283    26.828167 
   38940    129.04175    -1044.235    10030.055    19309.935    3.6030634    26.828328 
   38950    128.85522   -1044.4401    10021.513     19310.29    3.6029971    26.828492 
   38960    128.06338   -1044.3957    10017.901    19310.651    3.6029298    26.828659 
   38970    126.64485    -1043.714    10021.881    19311.015    3.6028618    26.828828 
   38980    124.63441   -1042.6085    10031.502    19311.385    3.6027929    26.828999 
   38990    122.14127   -1041.0075    10046.473    19311.763    3.6027224    26.829174 
   39000    119.35695   -1039.2478    10063.479    19312.152    3.6026498    26.829354 
   39010     116.5465   -1037.5664      10079.9    19312.558    3.6025741    26.829542 
   39020    113.99947   -1036.1515    10093.516    19312.984    3.6024945     26.82974 
   39030     111.9601   -1035.1683    10102.337    19313.436    3.6024103    26.829949 
   39040    110.57743   -1034.6635    10105.309    19313.914    3.6023211     26.83017 
   39050    109.89788   -1034.8221    10100.662     19314.42    3.6022268    26.830405 
   39060    109.87671   -1035.4565    10089.597    19314.952    3.6021275    26.830651 
   39070    110.40547    -1036.578    10072.392    19315.507     3.602024    26.830908 
   39080     111.3379   -1037.9955    10051.157     19316.08    3.6019171    26.831173 
   39090    112.51251    -1039.561    10027.986    19316.666    3.6018079    26.831445 
   39100    113.77222   -1041.2456    10004.227    19317.257    3.6016976    26.831719 
   39110    114.98176   -1042.5263    9984.5706    19317.848    3.6015875    26.831992 
   39120    116.03718   -1043.5803    9968.5947    19318.433    3.6014785    26.832263 
   39130    116.87301   -1044.2884    9957.6334    19319.007    3.6013714    26.832529 
   39140    117.46247   -1044.4826    9953.0317    19319.568    3.6012669    26.832788 
   39150    117.81534   -1044.4341    9952.7637    19320.114    3.6011652    26.833041 
   39160      117.972   -1044.0841    9956.8509    19320.644    3.6010662    26.833287 
   39170    117.99169   -1043.7902      9962.25    19321.162    3.6009698    26.833526 
   39180    117.93861   -1043.0785    9971.6392    19321.667    3.6008757     26.83376 
   39190    117.87291   -1042.4505    9980.9414    19322.163    3.6007833    26.833989 
   39200    117.84583   -1041.8049    9990.3904    19322.651    3.6006922    26.834216 
   39210    117.88946    -1041.161     9999.494    19323.136    3.6006019     26.83444 
   39220    118.02532   -1040.6721    10006.954    19323.619    3.6005119    26.834664 
   39230    118.26538   -1040.3334    10012.652    19324.103    3.6004218    26.834887 
   39240    118.61435   -1040.1074    10016.729    19324.588    3.6003313    26.835112 
   39250    119.07366   -1040.0536    10018.661    19325.077    3.6002403    26.835338 
   39260     119.6425   -1040.1334    10018.635    19325.569    3.6001486    26.835566 
   39270    120.31131   -1040.4459    10015.932    19326.065    3.6000563    26.835796 
   39280    121.05928   -1040.8792    10011.403    19326.563    3.5999634    26.836026 
   39290    121.84577   -1041.2451    10006.531    19327.064    3.5998702    26.836258 
   39300    122.62143   -1041.6384    10000.937    19327.564     3.599777     26.83649 
   39310     123.3304   -1042.3155      9993.13    19328.063     3.599684    26.836721 
   39320    123.92887   -1042.8853    9986.0778    19328.559    3.5995917     26.83695 
   39330    124.38846   -1043.0996    9981.5803    19329.049    3.5995004    26.837177 
   39340    124.70652   -1043.5558    9975.3511    19329.533    3.5994104    26.837401 
   39350      124.905   -1043.9514    9969.1863    19330.008    3.5993219    26.837621 
   39360     125.0172   -1044.1227    9963.8142    19330.473    3.5992353    26.837836 
   39370    125.07468   -1044.4196    9956.4267    19330.926    3.5991508    26.838046 
   39380    125.09306   -1044.9253    9946.2491    19331.366    3.5990689    26.838249 
   39390    125.06106   -1045.4416    9934.7333     19331.79      3.59899    26.838445 
   39400    124.93488   -1046.0704    9921.5178    19332.194    3.5989148    26.838633 
   39410    124.64894   -1046.7118    9907.8684    19332.575    3.5988439    26.838809 
   39420    124.12922   -1047.1053    9896.2552     19332.93    3.5987779    26.838973 
   39430     123.3163   -1047.3714    9886.4336    19333.254    3.5987175    26.839123 
   39440    122.18395   -1047.2909    9880.3246    19333.546    3.5986632    26.839258 
   39450    120.76159   -1047.2341    9875.5156    19333.804    3.5986152    26.839377 
   39460    119.13283    -1046.971    9873.5473    19334.026    3.5985738     26.83948 
   39470    117.42921   -1046.5263    9874.0553    19334.213    3.5985391    26.839567 
   39480    115.79796   -1046.0816    9875.5073    19334.364    3.5985109    26.839637 
   39490    114.36915   -1045.7848    9876.5612     19334.48    3.5984893     26.83969 
   39500    113.23641   -1045.4996     9877.846    19334.562    3.5984742    26.839728 
   39510    112.44728    -1045.462    9877.4272    19334.609    3.5984654     26.83975 
   39520    112.00707   -1045.5154    9876.1699    19334.622    3.5984629    26.839756 
   39530    111.88939   -1045.7762    9873.1456    19334.601    3.5984669    26.839746 
   39540    112.04815   -1046.2462    9868.3259    19334.544    3.5984774     26.83972 
   39550    112.42631   -1046.8408    9862.3301    19334.452    3.5984946    26.839677 
   39560    112.97152   -1047.4062    9856.2614    19334.321    3.5985189    26.839617 
   39570    113.64359   -1048.0225    9849.5744    19334.151    3.5985505    26.839538 
   39580    114.41315   -1048.5339    9843.3451     19333.94    3.5985898     26.83944 
   39590    115.25676   -1049.1559    9836.0884    19333.686     3.598637    26.839323 
   39600     116.1506    -1049.877    9827.9552    19333.388    3.5986926    26.839185 
   39610    117.06617   -1050.6509    9819.4062    19333.043    3.5987569    26.839025 
   39620    117.97376   -1051.0827    9813.3926    19332.649    3.5988302    26.838843 
   39630    118.84294   -1051.6832    9806.5924    19332.204     3.598913    26.838637 
   39640    119.64573   -1052.2287    9800.8155    19331.708    3.5990054    26.838407 
   39650    120.35526   -1052.4704    9798.0599    19331.158    3.5991078    26.838153 
   39660    120.94037    -1052.864    9795.4218    19330.553    3.5992203    26.837873 
   39670    121.37208   -1052.8831     9796.859    19329.895     3.599343    26.837568 
   39680    121.62238     -1052.81    9800.6897    19329.182    3.5994757    26.837238 
   39690    121.66701   -1052.4624     9808.411    19328.417    3.5996182    26.836884 
   39700    121.49547   -1051.7961    9820.4666    19327.601    3.5997701    26.836507 
   39710    121.11482   -1050.8868     9836.336    19326.738    3.5999308    26.836108 
   39720    120.54938   -1049.6098    9856.7354    19325.834    3.6000993    26.835689 
   39730    119.84091    -1048.279    9879.1822    19324.893    3.6002746    26.835253 
   39740    119.04237   -1046.7307    9904.3946    19323.921    3.6004556    26.834804 
   39750    118.21617    -1045.009    9931.5685    19322.927    3.6006408    26.834343 
   39760    117.42946   -1043.4093    9958.1134    19321.918    3.6008289    26.833876 
   39770    116.75043   -1042.0811     9982.456    19320.901    3.6010184    26.833405 
   39780    116.24375   -1040.6775    10006.522    19319.883    3.6012082    26.832934 
   39790    115.96493   -1039.4543    10028.135     19318.87     3.601397    26.832465 
   39800    115.95392   -1038.4992    10046.431    19317.869    3.6015836    26.832002 
   39810    116.22897   -1037.9707    10060.229    19316.884    3.6017672    26.831546 
   39820    116.78656   -1037.6087     10071.45     19315.92     3.601947    26.831099 
   39830    117.59891   -1037.3001    10081.149     19314.98    3.6021224    26.830664 
   39840    118.61805   -1037.3341    10087.677    19314.065     3.602293     26.83024 
   39850    119.77691   -1037.2774    10094.448    19313.178    3.6024584     26.82983 
   39860    120.99463   -1037.2592    10100.923    19312.321    3.6026182    26.829433 
   39870     122.1855   -1037.3669    10106.797    19311.495    3.6027723     26.82905 
   39880    123.26701    -1037.059    10116.068    19310.702    3.6029202    26.828683 
   39890    124.16628   -1036.9085     10124.86    19309.945    3.6030616    26.828332 
   39900    124.83557   -1036.4797    10136.222    19309.225    3.6031959    26.827999 
   39910    125.25673   -1035.9262    10148.965    19308.546    3.6033227    26.827684 
   39920     125.4421   -1035.0843    10163.979    19307.911    3.6034412     26.82739 
   39930    125.43135   -1034.4284    10177.584    19307.323    3.6035508    26.827118 
   39940    125.28011   -1033.7335    10190.883    19306.788    3.6036507     26.82687 
   39950    125.05273    -1033.002    10203.378    19306.308    3.6037404    26.826648 
   39960    124.80784   -1032.2745    10214.383    19305.886    3.6038191    26.826452 
   39970    124.58514   -1032.0307    10220.323    19305.525    3.6038864    26.826285 
   39980    124.39974   -1031.8556    10224.126    19305.227     3.603942    26.826147 
   39990    124.23291   -1031.8999    10225.069    19304.993    3.6039858    26.826039 
   40000    124.03647   -1031.8288    10226.059    19304.822    3.6040177     26.82596 
Loop time of 4.73682 on 1 procs for 20000 steps with 500 atoms

Performance: 364.802 ns/day, 0.066 hours/ns, 4222.240 timesteps/s
98.7% CPU use with 1 MPI tasks x no OpenMP threads

MPI task timing breakdown:
Section |  min time  |  avg time  |  max time  |%varavg| %total
---------------------------------------------------------------
Pair    | 4.0258     | 4.0258     | 4.0258     |   0.0 | 84.99
Neigh   | 0.10574    | 0.10574    | 0.10574    |   0.0 |  2.23
Comm    | 0.14518    | 0.14518    | 0.14518    |   0.0 |  3.06
Output  | 0.021994   | 0.021994   | 0.021994   |   0.0 |  0.46
Modify  | 0.38507    | 0.38507    | 0.38507    |   0.0 |  8.13
Other   |            | 0.05301    |            |       |  1.12

Nlocal:    500 ave 500 max 500 min
Histogram: 1 0 0 0 0 0 0 0 0 0
Nghost:    1420 ave 1420 max 1420 min
Histogram: 1 0 0 0 0 0 0 0 0 0
Neighs:    13506 ave 13506 max 13506 min
Histogram: 1 0 0 0 0 0 0 0 0 0

Total # of neighbors = 13506
Ave neighs/atom = 27.012
Neighbor list builds = 165
Dangerous builds = 0
Total wall time: 0:00:09
