LAMMPS (7 Aug 2019)
Reading data file ...
  orthogonal box = (-1.4719 -1.4719 -1.4719) to (26.4719 26.4719 26.4719)
  1 by 1 by 1 MPI processor grid
  reading atoms ...
  500 atoms
  reading velocities ...
  500 velocities
  read_data CPU = 0.00277209 secs
Neighbor list info ...
  update every 1 steps, delay 10 steps, check yes
  max neighbors/atom: 2000, page size: 100000
  master list distance cutoff = 8
  ghost atom cutoff = 8
  binsize = 4, bins = 7 7 7
  1 neighbor lists, perpetual/occasional/extra = 1 0 0
  (1) pair lj/cut, perpetual
      attributes: half, newton on
      pair build: half/bin/atomonly/newton
      stencil: half/bin/3d/newton
      bin: standard
Setting up Verlet run ...
  Unit style    : real
  Current step  : 0
  Time step     : 1
Per MPI rank memory allocation (min/avg/max) = 3.998 | 3.998 | 3.998 Mbytes
Step Temp PotEng Press Volume Density Lx 
       0   0.94924373   -1315.7856    26.487323    21820.062    3.1885758    27.943791 
      10   0.94791824    -1315.783    26.103636    21820.338    3.1885354    27.943909 
      20   0.94690181   -1315.7796    24.906759     21821.16    3.1884153     27.94426 
      30   0.94624506   -1315.7753    22.935457    21822.501    3.1882193    27.944832 
      40   0.94600999   -1315.7701    20.253463    21824.322    3.1879534    27.945609 
      50   0.94626156    -1315.764    16.947275    21826.565    3.1876257    27.946567 
      60    0.9470524   -1315.7568    13.123176    21829.163    3.1872463    27.947676 
      70   0.94839858   -1315.7486    8.9035818    21832.036    3.1868269    27.948902 
      80   0.95024697   -1315.7392    4.4228692    21835.095    3.1863805    27.950207 
      90   0.95244092   -1315.7287  -0.17714778    21838.247    3.1859205    27.951552 
     100   0.95469968   -1315.7171    -4.751884    21841.396    3.1854612    27.952895 
     110   0.95663231   -1315.7043   -9.1585641    21844.446    3.1850164    27.954197 
     120   0.95779893   -1315.6906   -13.260527    21847.306    3.1845996    27.955416 
     130   0.95780768   -1315.6758   -16.931152    21849.888    3.1842232    27.956517 
     140   0.95640946   -1315.6602   -20.057405    21852.116    3.1838985    27.957468 
     150    0.9535484   -1315.6439   -22.543039    21853.925     3.183635    27.958239 
     160   0.94934972    -1315.627   -24.311446    21855.262    3.1834402    27.958809 
     170   0.94406152   -1315.6096   -25.308027     21856.09    3.1833196    27.959163 
     180   0.93798569   -1315.5917   -25.501953    21856.389    3.1832761     27.95929 
     190   0.93142578   -1315.5734    -24.88719    21856.154    3.1833104     27.95919 
     200    0.9246589   -1315.5548   -23.482729    21855.397    3.1834205    27.958867 
     210   0.91792436   -1315.5359   -21.332065     21854.15    3.1836022    27.958335 
     220   0.91141904   -1315.5165   -18.501944    21852.456     3.183849    27.957613 
     230   0.90529317   -1315.4968   -15.080426    21850.375    3.1841522    27.956725 
     240   0.89964429   -1315.4766   -11.174323    21847.979    3.1845015    27.955703 
     250   0.89451075   -1315.4559   -6.9060436    21845.349    3.1848848    27.954582 
     260   0.88986851   -1315.4347   -2.4099226    21842.576    3.1852892    27.953399 
     270   0.88563593    -1315.413    2.1718913    21839.753    3.1857009    27.952194 
     280   0.88169005   -1315.3908    6.6938953    21836.975    3.1861061    27.951009 
     290    0.8778933   -1315.3681    11.011902    21834.338    3.1864909    27.949884 
     300   0.87412345    -1315.345    14.987755    21831.932    3.1868421    27.948857 
     310   0.87029721   -1315.3215    18.493905    21829.839    3.1871476    27.947964 
     320   0.86637995   -1315.2978    21.417657    21828.133    3.1873967    27.947236 
     330   0.86238083   -1315.2739    23.664926    21826.875    3.1875805    27.946699 
     340   0.85833823   -1315.2498    25.163381     21826.11    3.1876921    27.946373 
     350   0.85430225   -1315.2257    25.864853    21825.871     3.187727    27.946271 
     360   0.85031978   -1315.2015    25.746935    21826.173     3.187683      27.9464 
     370   0.84642476   -1315.1772    24.813715    21827.012    3.1875604    27.946758 
     380   0.84263436   -1315.1528    23.095618    21828.369    3.1873622    27.947337 
     390   0.83894997   -1315.1283    20.648347    21830.209    3.1870936    27.948122 
     400   0.83536152   -1315.1036    17.550978    21832.481     3.186762    27.949092 
     410     0.831853   -1315.0785     13.90328     21835.12    3.1863769    27.950217 
     420    0.8284074   -1315.0531    9.8223531    21838.049    3.1859494    27.951467 
     430    0.8250102   -1315.0273    5.4387293    21841.184    3.1854921    27.952805 
     440   0.82165076    -1315.001   0.89207186    21844.434    3.1850182    27.954191 
     450   0.81832228   -1314.9742   -3.6733618    21847.703    3.1845417    27.955585 
     460   0.81502076   -1314.9469   -8.1133363    21850.895    3.1840764    27.956947 
     470    0.8117438   -1314.9192   -12.288179    21853.918     3.183636    27.958236 
     480   0.80848968   -1314.8911   -16.067105    21856.684    3.1832331    27.959416 
     490   0.80525682   -1314.8626   -19.332194    21859.114    3.1828792    27.960452 
     500    0.8020436   -1314.8339    -21.98193     21861.14    3.1825843    27.961316 
     510   0.79884847   -1314.8051   -23.934193    21862.705    3.1823564    27.961983 
     520   0.79567016   -1314.7761   -25.128658    21863.769    3.1822016    27.962436 
     530   0.79250777    -1314.747    -25.52853    21864.307    3.1821233    27.962666 
     540   0.78936092   -1314.7179   -25.121602    21864.309    3.1821229    27.962667 
     550   0.78622975   -1314.6887   -23.920593    21863.786    3.1821991    27.962444 
     560   0.78311488   -1314.6595   -21.962776    21862.761    3.1823483    27.962007 
     570   0.78001742   -1314.6301   -19.308904    21861.277    3.1825644    27.961374 
     580   0.77693892   -1314.6005   -16.041442    21859.388    3.1828393    27.960569 
     590   0.77388133   -1314.5707   -12.262153    21857.164    3.1831632     27.95962 
     600   0.77084702   -1314.5406   -8.0890822    21854.683    3.1835245    27.958563 
     610    0.7678388   -1314.5101   -3.6530204    21852.034    3.1839105    27.957433 
     620   0.76485991   -1314.4793   0.90648356    21849.309    3.1843076     27.95627 
     630    0.7619141   -1314.4481    5.4454371    21846.603     3.184702    27.955116 
     640   0.75900561   -1314.4166    9.8199304    21844.011    3.1850798    27.954011 
     650   0.75613929   -1314.3848    13.890732    21841.626    3.1854277    27.952993 
     660   0.75332059   -1314.3528    17.527804    21839.531    3.1857332      27.9521 
     670   0.75055567   -1314.3206    20.614575    21837.804    3.1859852    27.951363 
     680   0.74785147   -1314.2884    23.051824    21836.507    3.1861744     27.95081 
     690   0.74521575   -1314.2562    24.761014    21835.692    3.1862933    27.950462 
     700   0.74265723   -1314.2241    25.686957    21835.395    3.1863366    27.950335 
     710   0.74018563   -1314.1922    25.799697    21835.635    3.1863016    27.950438 
     720   0.73781173   -1314.1604    25.095524    21836.415    3.1861879     27.95077 
     730    0.7355475   -1314.1287    23.597102    21837.718    3.1859977    27.951326 
     740   0.73340611   -1314.0971    21.352676    21839.515    3.1857355    27.952093 
     750   0.73140203   -1314.0656    18.434412    21841.759    3.1854083     27.95305 
     760     0.729551   -1314.0342    14.935933    21844.389    3.1850248    27.954172 
     770   0.72787008   -1314.0027    10.969149    21847.331    3.1845959    27.955427 
     780   0.72637766   -1313.9712    6.6605086    21850.503    3.1841336     27.95678 
     790   0.72509337   -1313.9396    2.1468212    21853.815     3.183651    27.958192 
     800   0.72403807   -1313.9079    -2.429201    21857.172     3.183162    27.959624 
     810   0.72323371   -1313.8763   -6.9235214    21860.479    3.1826805    27.961034 
     820   0.72270326   -1313.8446   -11.195324    21863.641    3.1822202    27.962382 
     830   0.72247051   -1313.8131    -15.11138    21866.569    3.1817941     27.96363 
     840   0.72255992   -1313.7818   -18.550117    21869.181    3.1814141    27.964743 
     850   0.72300279   -1313.7262   -21.254865    21871.404    3.1810907    27.965691 
     860   0.72382137   -1313.6957   -23.443624    21873.182    3.1808322    27.966449 
     870   0.72503488   -1313.6657   -24.898655    21874.468    3.1806452    27.966997 
     880   0.72668405   -1313.6118   -25.425206    21875.232     3.180534    27.967322 
     890   0.72879497   -1313.5831   -25.308906    21875.463    3.1805005    27.967421 
     900   0.73137297   -1313.5306   -24.252442    21875.163    3.1805442    27.967293 
     910   0.73445753   -1313.4788   -22.439142    21874.353    3.1806619    27.966948 
     920   0.73804622   -1313.4523   -20.077283    21873.073     3.180848    27.966402 
     930   0.74214862   -1313.4264   -17.090156    21871.371    3.1810955    27.965677 
     940   0.74677827   -1313.4011   -13.571044    21869.312     3.181395    27.964799 
     950   0.75194573   -1313.3764   -9.6300035    21866.969    3.1817359    27.963801 
     960    0.7576581   -1313.3522   -5.3905732    21864.425    3.1821062    27.962716 
     970   0.76391868   -1313.3285  -0.98602624    21861.768    3.1824929    27.961583 
     980   0.77072666   -1313.3053    3.4447285    21859.091    3.1828826    27.960442 
     990   0.77807691   -1313.2826    7.7614859    21856.486    3.1832619    27.959331 
    1000   0.78595984   -1313.2604    11.827192    21854.045    3.1836175     27.95829 
    1010   0.79436133   -1313.2389    15.512353    21851.852     3.183937    27.957355 
    1020   0.80326278   -1313.2179    18.699263    21849.984    3.1842092    27.956559 
    1030   0.81264127   -1313.1977     21.28589    21848.508    3.1844244    27.955929 
    1040   0.82247556   -1313.1536    23.340102    21847.477    3.1845746    27.955489 
    1050   0.83273642   -1313.1595    24.343382    21846.935    3.1846537    27.955258 
    1060    0.8433874   -1313.1416    24.715287    21846.902    3.1846584    27.955244 
    1070   0.85438738   -1313.1245    24.294063    21847.387    3.1845877    27.955451 
    1080   0.86569686   -1313.1081    23.093482     21848.38     3.184443    27.955874 
    1090   0.87727461   -1313.0925    21.152389    21849.856    3.1842278    27.956504 
    1100   0.88907817   -1313.0776    18.533353    21851.776    3.1839481    27.957323 
    1110   0.90106632   -1313.0387    15.471307    21854.083    3.1836119    27.958307 
    1120   0.91319407    -1313.025    11.762984    21856.714    3.1832287    27.959429 
    1130   0.92542678   -1312.9871    7.8277284    21859.593    3.1828096    27.960656 
    1140   0.93771613   -1312.9498    3.6404151    21862.635    3.1823667    27.961953 
    1150   0.95002402    -1312.962  -0.96657576    21865.752     3.181913    27.963282 
    1160   0.96230291   -1312.9748   -5.5471658    21868.848    3.1814625    27.964602 
    1170   0.97450039   -1312.9389    -9.656883    21871.829     3.181029    27.965872 
    1180   0.98659612   -1312.8791   -13.318082    21874.606     3.180625    27.967056 
    1190   0.99852927   -1312.8937   -17.021431    21877.104    3.1802619     27.96812 
    1200    1.0102596   -1312.8601    -19.90096    21879.246    3.1799505    27.969033 
    1210    1.0217163    -1312.852   -22.318991    21880.971    3.1796998    27.969768 
    1220    1.0328382   -1312.8204   -23.899853    21882.228    3.1795172    27.970304 
    1230    1.0435655   -1312.8146   -24.896529    21882.982    3.1794076    27.970625 
    1240    1.0538254     -1312.81   -25.130212    21883.214     3.179374    27.970724 
    1250    1.0635558   -1312.8069   -24.594037    21882.917    3.1794171    27.970597 
    1260    1.0726746   -1312.7806   -23.156225    21882.105    3.1795351    27.970251 
    1270    1.0810699   -1312.7804   -21.164475    21880.806    3.1797238    27.969698 
    1280    1.0886403   -1312.8062   -18.681871    21879.064     3.179977    27.968955 
    1290    1.0952941   -1312.8089   -15.486653    21876.931     3.180287    27.968047 
    1300    1.1009174   -1312.8132   -11.829478    21874.475    3.1806441       27.967 
    1310    1.1053944   -1312.8189   -7.8246546    21871.771    3.1810374    27.965847 
    1320    1.1086332   -1312.8506   -3.7497216    21868.904    3.1814544    27.964625 
    1330    1.1105845   -1312.8593   0.56658915     21865.96    3.1818827     27.96337 
    1340     1.111219   -1312.8941    4.6895242    21863.027    3.1823095     27.96212 
    1350    1.1105956   -1312.9305    8.6389087    21860.193    3.1827222    27.960912 
    1360    1.1087959   -1312.9932    12.136922    21857.539    3.1831086     27.95978 
    1370    1.1060255    -1313.033    15.374093    21855.141    3.1834579    27.958758 
    1380    1.1024857   -1313.0499    18.248265    21853.065    3.1837603    27.957872 
    1390    1.0984605   -1313.0687    20.517206    21851.371    3.1840071     27.95715 
    1400    1.0942672   -1313.1138    21.959311    21850.106    3.1841914    27.956611 
    1410    1.0901947   -1313.1117    22.981942    21849.301    3.1843087    27.956267 
    1420    1.0864949   -1313.1359    23.101709    21848.976    3.1843561    27.956129 
    1430    1.0833641   -1313.1619    22.465756    21849.135     3.184333    27.956196 
    1440    1.0809413   -1313.1895    21.095901    21849.763    3.1842414    27.956464 
    1450    1.0793062   -1313.2188    19.037502    21850.833    3.1840855    27.956921 
    1460    1.0784864   -1313.2494     16.35793    21852.302    3.1838715    27.957547 
    1470    1.0784673   -1313.2815    13.144307    21854.113    3.1836076    27.958319 
    1480    1.0792036   -1313.3392    9.3496157    21856.199    3.1833038    27.959209 
    1490    1.0806284   -1313.3734    5.3972284    21858.482    3.1829713    27.960182 
    1500    1.0826509   -1313.4086    1.2636471    21860.878    3.1826225    27.961204 
    1510    1.0851744   -1313.4445   -2.9190498      21863.3    3.1822698    27.962237 
    1520     1.088098   -1313.4812   -7.0177144    21865.662    3.1819261    27.963243 
    1530    1.0913209   -1313.5185   -10.902329    21867.876    3.1816039    27.964187 
    1540    1.0947519   -1313.5319   -14.299056    21869.863    3.1813149    27.965034 
    1550    1.0983097   -1313.5703   -17.401672    21871.549    3.1810697    27.965753 
    1560    1.1018948   -1313.6339   -20.113647     21872.87    3.1808776    27.966316 
    1570    1.1054594   -1313.6734   -22.049577    21873.771    3.1807466      27.9667 
    1580    1.1089213   -1313.7379   -23.448459    21874.209    3.1806828    27.966886 
    1590    1.1122472   -1313.7783   -23.965511    21874.157    3.1806904    27.966864 
    1600    1.1153733   -1313.8191   -23.733097    21873.603     3.180771    27.966628 
    1610    1.1182659   -1313.8601   -22.757462    21872.551     3.180924     27.96618 
    1620       1.1209   -1313.9014   -21.067903    21871.022    3.1811463    27.965528 
    1630    1.1232582   -1313.9427   -18.715924    21869.052    3.1814329    27.964688 
    1640    1.1253296    -1313.984   -15.773747     21866.69    3.1817765    27.963682 
    1650    1.1271086   -1314.0252   -12.332204    21863.998    3.1821682    27.962534 
    1660    1.1285943   -1314.0661   -8.4980463    21861.049    3.1825976    27.961277 
    1670    1.1297893   -1314.1067   -4.3907481    21857.922    3.1830528    27.959944 
    1680    1.1306991   -1314.1469  -0.13887118    21854.704    3.1835215    27.958572 
    1690    1.1313315   -1314.1867    4.1239036    21851.485    3.1839905    27.957199 
    1700    1.1316962   -1314.2261    8.2629685    21848.352     3.184447    27.955863 
    1710     1.131804    -1314.265    12.147076    21845.394    3.1848783    27.954601 
    1720     1.131667   -1314.3036    15.652583     21842.69    3.1852725    27.953447 
    1730    1.1312979   -1314.3418    18.667501    21840.315     3.185619    27.952434 
    1740    1.1307101   -1314.3797    21.095217     21838.33    3.1859085    27.951587 
    1750     1.129917   -1314.4174    22.857736    21836.787    3.1861336    27.950929 
    1760    1.1289324   -1314.4549    23.898322    21835.721    3.1862891    27.950474 
    1770    1.1277699   -1314.4922    24.183437    21835.156    3.1863716    27.950233 
    1780     1.126443   -1314.5293    23.703895    21835.096    3.1863803    27.950207 
    1790    1.1249648   -1314.5663    22.475179    21835.531    3.1863168    27.950393 
    1800    1.1233482    -1314.603    20.536924    21836.437    3.1861847     27.95078 
    1810    1.1216086    -1314.664    17.800204    21837.771    3.1859899    27.951349 
    1820    1.1197754   -1314.7002    14.653845    21839.479    3.1857408    27.952078 
    1830     1.117841    -1314.736    11.049155    21841.494     3.185447    27.952937 
    1840    1.1158146   -1314.7714    7.1014161    21843.739    3.1851195    27.953895 
    1850    1.1137046   -1314.8063    2.9364793    21846.134    3.1847704    27.954916 
    1860    1.1115179   -1314.8406   -1.3133308     21848.59    3.1844124    27.955964 
    1870    1.1092605   -1314.8745   -5.5134695    21851.018    3.1840585       27.957 
    1880     1.106937   -1314.9078   -9.5314304    21853.331    3.1837215    27.957986 
    1890    1.1045506   -1314.9407   -13.240879    21855.445    3.1834135    27.958888 
    1900    1.1021029   -1314.9731   -16.525532    21857.282     3.183146    27.959671 
    1910    1.0995943   -1315.0051   -19.282683    21858.773    3.1829289    27.960307 
    1920     1.097023   -1315.0368   -21.426266    21859.861    3.1827705     27.96077 
    1930    1.0943861   -1315.0681   -22.889402    21860.499    3.1826776    27.961042 
    1940    1.0916787   -1315.0991   -23.626356    21860.658    3.1826544     27.96111 
    1950    1.0888944   -1315.1299   -23.613866    21860.323    3.1827032    27.960967 
    1960    1.0860252   -1315.1603   -22.851818    21859.493    3.1828241    27.960613 
    1970    1.0830617   -1315.1902   -21.363251    21858.185    3.1830146    27.960056 
    1980    1.0799929   -1315.2198   -19.193698     21856.43    3.1832702    27.959307 
    1990    1.0768068   -1315.2487   -16.409863    21854.273    3.1835843    27.958388 
    2000    1.0734905    -1315.277   -13.097678    21851.774    3.1839484    27.957322 
    2010    1.0700303   -1315.3046    -9.359767    21849.001    3.1843525    27.956139 
    2020    1.0664122   -1315.3313   -5.3123816    21846.033    3.1847851    27.954873 
    2030    1.0626221    -1315.357   -1.0818856    21842.955    3.1852338     27.95356 
    2040    1.0586464   -1315.3817    3.1991262    21839.856    3.1856859    27.952238 
    2050    1.0544725   -1315.4054    7.3959621    21836.824    3.1861282    27.950945 
    2060    1.0500888    -1315.428    11.376097    21833.947    3.1865479    27.949717 
    2070    1.0454858   -1315.4495    15.013427     21831.31     3.186933    27.948592 
    2080    1.0406561     -1315.47    18.192383    21828.986    3.1872722      27.9476 
    2090    1.0355954   -1315.4894    20.811736    21827.043    3.1875559    27.946771 
    2100    1.0303025   -1315.5077    22.787977    21825.536    3.1877761    27.946128 
    2110      1.02478   -1315.5251    24.058122    21824.504    3.1879267    27.945687 
    2120    1.0190348   -1315.5414    24.581852    21823.975     3.188004    27.945462 
    2130    1.0130781   -1315.5567    24.342875     21823.96    3.1880063    27.945455 
    2140    1.0069264    -1315.571    23.349485    21824.452    3.1879343    27.945665 
    2150    1.0006011   -1315.5841    21.634266    21825.433    3.1877911    27.946084 
    2160   0.99412907    -1315.596    19.252978    21826.865     3.187582    27.946695 
    2170   0.98754284   -1315.6067    16.282651    21828.699    3.1873141    27.947478 
    2180   0.98088054   -1315.6161    12.818981    21830.873    3.1869967    27.948405 
    2190    0.9741861    -1315.624    8.9731172    21833.315    3.1866402    27.949448 
    2200   0.96750922   -1315.6306    4.8679778    21835.945    3.1862564     27.95057 
    2210   0.96090533   -1315.6357   0.63422103    21838.677    3.1858578    27.951735 
    2220   0.95443557   -1315.6393   -3.5939742    21841.422    3.1854574    27.952907 
    2230   0.94816661   -1315.6416   -7.6831797    21844.093     3.185068    27.954046 
    2240   0.94217034   -1315.6424   -11.504899    21846.603    3.1847021    27.955116 
    2250   0.93652349    -1315.642   -14.939535    21848.872    3.1843713    27.956084 
    2260   0.93130684   -1315.6403   -17.880021    21850.828    3.1840861    27.956919 
    2270   0.92660401   -1315.6375   -20.235034    21852.411    3.1838555    27.957594 
    2280   0.92249964   -1315.6336   -21.931694     21853.57    3.1836867    27.958088 
    2290   0.91907659   -1315.6288   -22.917703     21854.27    3.1835847    27.958386 
    2300   0.91641202    -1315.623   -23.162863    21854.491    3.1835526     27.95848 
    2310   0.91457205   -1315.6163   -22.659954    21854.227    3.1835911    27.958368 
    2320   0.91360514   -1315.6087   -21.424951    21853.488    3.1836986    27.958053 
    2330   0.91353439   -1315.6003   -19.496574    21852.302    3.1838715    27.957547 
    2340   0.91434998   -1315.5909   -16.935177    21850.707    3.1841038    27.956867 
    2350   0.91600297   -1315.5805      -13.821    21848.759    3.1843877    27.956036 
    2360   0.91840274   -1315.5691   -10.251807    21846.523    3.1847137    27.955082 
    2370   0.92141939   -1315.5566   -6.3399692    21844.072     3.185071    27.954037 
    2380   0.92489179   -1315.5431   -2.2090471     21841.49    3.1854476    27.952935 
    2390   0.92864021   -1315.5284    2.0100237    21838.862    3.1858308    27.951814 
    2400   0.93248105   -1315.5127    6.1830431    21836.277     3.186208    27.950711 
    2410   0.93624062   -1315.4959    10.176817    21833.822    3.1865662    27.949664 
    2420   0.93976565   -1315.4781    13.863454    21831.581    3.1868934    27.948707 
    2430   0.94292953   -1315.4593    17.124531    21829.629    3.1871783    27.947875 
    2440   0.94563451   -1315.4397    19.854999    21828.036    3.1874109    27.947195 
    2450   0.94781085   -1315.4192    21.966673    21826.858    3.1875829    27.946692 
    2460   0.94941422   -1315.3981    23.391189    21826.139    3.1876879    27.946385 
    2470    0.9504223   -1315.3763    24.082311    21825.909    3.1877216    27.946287 
    2480   0.95083114   -1315.3538    24.017486    21826.181    3.1876818    27.946403 
    2490   0.95065181   -1315.3308    23.198612    21826.955    3.1875687    27.946733 
    2500   0.94990724   -1315.3071    21.651956    21828.214     3.187385    27.947271 
    2510    0.9486295   -1315.2829    19.427246    21829.925    3.1871352    27.948001 
    2520   0.94685733    -1315.258     16.59597    21832.041    3.1868262    27.948904 
    2530   0.94463391   -1315.2324    13.248943    21834.505    3.1864666    27.949955 
    2540   0.94200493   -1315.2062    9.4932515    21837.245    3.1860667    27.951124 
    2550   0.93901684   -1315.1792    5.4486862    21840.184     3.185638    27.952378 
    2560   0.93571529   -1315.1514    1.2437996    21843.237    3.1851927    27.953681 
    2570    0.9321439   -1315.1229   -2.9882671    21846.316    3.1847438    27.954994 
    2580   0.92834312   -1315.0938   -7.1140431    21849.333     3.184304    27.956281 
    2590   0.92434948   -1315.0639   -11.003933    21852.201    3.1838861    27.957504 
    2600   0.92019506   -1315.0335   -14.536238    21854.839    3.1835018    27.958629 
    2610   0.91590717   -1315.0026   -17.600873    21857.173    3.1831619    27.959624 
    2620   0.91150838   -1314.9713   -20.102679    21859.138    3.1828757    27.960462 
    2630   0.90701676   -1314.9396   -21.964255    21860.682    3.1826509     27.96112 
    2640    0.9024462   -1314.9076   -23.128226    21861.766    3.1824931    27.961583 
    2650   0.89780706   -1314.8754   -23.558912    21862.366    3.1824058    27.961838 
    2660   0.89310678    -1314.843   -23.243356    21862.472    3.1823904    27.961884 
    2670   0.88835058   -1314.8104    -22.19169    21862.091    3.1824458    27.961721 
    2680   0.88354217   -1314.7776   -20.436836    21861.246    3.1825688    27.961361 
    2690   0.87868438   -1314.7446   -18.033546    21859.973    3.1827542    27.960818 
    2700   0.87377982   -1314.7113   -15.056802    21858.323    3.1829945    27.960114 
    2710   0.86883133   -1314.6776   -11.599605    21856.357    3.1832807    27.959276 
    2720   0.86384247   -1314.6437   -7.7702121     21854.15    3.1836022    27.958335 
    2730   0.85881783   -1314.6093   -3.6888772    21851.781    3.1839474    27.957325 
    2740   0.85376337   -1314.5745   0.51581497    21849.335    3.1843038    27.956282 
    2750   0.84868655   -1314.5393    4.7109281      21846.9    3.1846586    27.955243 
    2760   0.84359657   -1314.5038    8.7633485    21844.565    3.1849991    27.954247 
    2770   0.83850445    -1314.468    12.544027    21842.414    3.1853127     27.95333 
    2780   0.83342311   -1314.4319    15.932148    21840.526    3.1855881    27.952524 
    2790   0.82836739   -1314.3957    18.819086    21838.971    3.1858149    27.951861 
    2800   0.82335412   -1314.3595    21.112005    21837.811    3.1859842    27.951366 
    2810   0.81840205   -1314.3233     22.73696    21837.091    3.1860892    27.951059 
    2820   0.81353182   -1314.2871    23.641391    21836.848    3.1861247    27.950955 
    2830   0.80876592   -1314.2512    23.795906    21837.098    3.1860882    27.951062 
    2840   0.80412856   -1314.2154    23.195273    21837.846    3.1859791    27.951381 
    2850   0.79964561   -1314.1799    21.858597    21839.079    3.1857992    27.951907 
    2860    0.7953444   -1314.1446    19.828653    21840.768    3.1855528    27.952627 
    2870   0.79125364   -1314.1095    17.170429    21842.872    3.1852459    27.953525 
    2880   0.78740322   -1314.0746    13.968916    21845.336    3.1848867    27.954576 
    2890   0.78382401   -1314.0399    10.326243    21848.091    3.1844851    27.955751 
    2900   0.78054775   -1314.0054    6.3582691    21851.063     3.184052    27.957019 
    2910   0.77760676    -1313.971    2.1907702    21854.168    3.1835996    27.958343 
    2920   0.77503677   -1313.8878   -1.7423071    21857.319    3.1831407    27.959686 
    2930   0.77289636    -1313.854   -5.9189187    21860.431    3.1826875    27.961013 
    2940   0.77118272   -1313.8205   -9.9088552    21863.419    3.1822525    27.962287 
    2950   0.76992822   -1313.7874   -13.587663    21866.199    3.1818479    27.963473 
    2960   0.76917559   -1313.7303    -16.69046    21868.696    3.1814847    27.964537 
    2970   0.76895625   -1313.6984   -19.422502    21870.841    3.1811725    27.965451 
    2980    0.7692866   -1313.6672   -21.549069     21872.58    3.1809197    27.966192 
    2990   0.77021673   -1313.5877   -22.703306    21873.867    3.1807325    27.966741 
    3000   0.77180417   -1313.5584   -23.451775    21874.676    3.1806149    27.967085 
    3010   0.77402899   -1313.5545   -23.622438    21874.992    3.1805689     27.96722 
    3020   0.77691371   -1313.5271   -22.909681    21874.813    3.1805949    27.967144 
    3030   0.78047472   -1313.5008   -21.487035    21874.154    3.1806908    27.966863 
    3040   0.78472991   -1313.4754    -19.39915    21873.044    3.1808521     27.96639 
    3050   0.78969418   -1313.4511    -16.71132    21871.528    3.1810726    27.965744 
    3060   0.79537896   -1313.4277   -13.507563    21869.663     3.181344    27.964949 
    3070   0.80179192   -1313.4053   -9.8881427    21867.514    3.1816566    27.964033 
    3080   0.80893658   -1313.3837   -5.9665607    21865.159    3.1819993    27.963029 
    3090   0.81681195   -1313.3631   -1.8661261     21862.68    3.1823601    27.961972 
    3100   0.82541225   -1313.3433    2.2838314    21860.162    3.1827267    27.960899 
    3110   0.83472663   -1313.3245    6.3519869    21857.693    3.1830862    27.959846 
    3120   0.84473889   -1313.3066    10.209167    21855.358    3.1834263     27.95885 
    3130   0.85542726   -1313.2896    13.732488    21853.237    3.1837353    27.957946 
    3140   0.86677944   -1313.2492    16.958858    21851.405    3.1840021    27.957164 
    3150   0.87874625   -1313.2344     19.48417    21849.929    3.1842173    27.956535 
    3160   0.89128487   -1313.2208     21.37848     21848.86     3.184373    27.956079 
    3170   0.90434939   -1313.2083    22.580696     21848.24    3.1844634    27.955815 
    3180   0.91788764   -1313.1971    23.051886    21848.092     3.184485    27.955751 
    3190    0.9318411   -1313.1872    22.776584    21848.426    3.1844363    27.955894 
    3200     0.946182   -1313.1786    21.763695    21849.236    3.1843182     27.95624 
    3210   0.96082338   -1313.1467    20.196547    21850.502    3.1841337    27.956779 
    3220   0.97568425   -1313.1406    17.824233    21852.189    3.1838879    27.957499 
    3230   0.99064996   -1313.1356    14.871623    21854.249    3.1835878    27.958377 
    3240    1.0056226   -1313.1318    11.432524     21856.62    3.1832425    27.959388 
    3250    1.0205125   -1313.1046     7.766524    21859.231    3.1828623    27.960502 
    3260    1.0352305   -1313.0785    3.8377812    21862.004    3.1824584    27.961684 
    3270    1.0496019   -1313.0781  -0.38028406    21864.859     3.182043    27.962901 
    3280    1.0634734   -1313.0788   -4.6044481    21867.705    3.1816288    27.964114 
    3290    1.0766885   -1313.0806   -8.7030912    21870.455    3.1812288    27.965286 
    3300    1.0890772   -1313.0837   -12.549152    21873.022    3.1808554     27.96638 
    3310    1.1004612   -1313.0635   -15.873062    21875.326    3.1805204    27.967362 
    3320    1.1106535   -1313.0694   -18.873857    21877.296     3.180234    27.968202 
    3330    1.1194523   -1313.0768   -21.310065     21878.87    3.1800052    27.968873 
    3340    1.1266964    -1313.086   -23.107821    21879.997    3.1798414    27.969353 
    3350    1.1321666   -1313.0969   -24.213229    21880.639    3.1797481    27.969626 
    3360     1.135745   -1313.1342   -24.744558    21880.772    3.1797287    27.969683 
    3370    1.1374088   -1313.1735    -24.53673    21880.388    3.1797846    27.969519 
    3380    1.1371982   -1313.1902   -23.445507    21879.489    3.1799153    27.969136 
    3390    1.1352842   -1313.2088   -21.654704    21878.098    3.1801174    27.968544 
    3400    1.1319985   -1313.2047   -19.069113    21876.255    3.1803854    27.967758 
    3410    1.1277595   -1313.2271   -16.068798    21874.012    3.1807115    27.966802 
    3420    1.1230428   -1313.2513   -12.594715    21871.432    3.1810866    27.965703 
    3430    1.1183193   -1313.2772   -8.7535406     21868.59    3.1815001    27.964491 
    3440    1.1139921   -1313.3048   -4.6637519    21865.564    3.1819403    27.963202 
    3450    1.1103636    -1313.334  -0.45209419    21862.443    3.1823946    27.961871 
    3460    1.1076583   -1313.4138    3.4483948    21859.312    3.1828504    27.960536 
    3470    1.1059814   -1313.4707    7.3664905    21856.256    3.1832954    27.959233 
    3480    1.1053261   -1313.5045    11.179731    21853.357    3.1837177    27.957997 
    3490    1.1056343   -1313.5887    14.316896    21850.693    3.1841059    27.956861 
    3500    1.1068679   -1313.6498    17.129423    21848.332      3.18445    27.955854 
    3510    1.1088527   -1313.6876    19.532269     21846.33    3.1847418       27.955 
    3520    1.1114336   -1313.7265    21.300418    21844.738    3.1849739    27.954321 
    3530    1.1144519    -1313.791    22.228184    21843.591    3.1851411    27.953832 
    3540    1.1177841   -1313.8319    22.588651    21842.912    3.1852402    27.953542 
    3550    1.1212282   -1313.8734     22.22407    21842.705    3.1852704    27.953453 
    3560    1.1246266   -1313.9155    21.149137    21842.962    3.1852328    27.953563 
    3570    1.1278593   -1313.9823     19.25168    21843.661    3.1851309    27.953862 
    3580    1.1307715   -1314.0247    16.896701    21844.763    3.1849703    27.954332 
    3590    1.1332393   -1314.0668    14.011481    21846.218    3.1847581    27.954952 
    3600      1.13516   -1314.1085    10.691312    21847.966    3.1845033    27.955698 
    3610    1.1364485   -1314.1494    7.0450061    21849.938    3.1842159    27.956539 
    3620    1.1370371   -1314.1896     3.191274    21852.057    3.1839071    27.957443 
    3630    1.1368748   -1314.2286  -0.74516832    21854.243    3.1835887    27.958375 
    3640    1.1359271   -1314.2665   -4.6376313    21856.413    3.1832725      27.9593 
    3650    1.1341749    -1314.303   -8.3614865    21858.487    3.1829706    27.960184 
    3660    1.1316135   -1314.3382   -11.798075    21860.385    3.1826942    27.960994 
    3670    1.1282517    -1314.372   -14.838375    21862.036    3.1824538    27.961698 
    3680    1.1241104   -1314.4043   -17.386318    21863.376    3.1822588    27.962269 
    3690    1.1192218   -1314.4352   -19.361674    21864.352    3.1821167    27.962685 
    3700    1.1136279   -1314.4646   -20.702433    21864.923    3.1820337    27.962928 
    3710    1.1073796   -1314.4927   -21.366623    21865.059    3.1820138    27.962986 
    3720    1.1005357   -1314.5193   -21.333525    21864.748     3.182059    27.962854 
    3730    1.0931614   -1314.5445   -20.604265    21863.991    3.1821693    27.962531 
    3740    1.0853275   -1314.5683   -19.201766    21862.802    3.1823423    27.962024 
    3750    1.0771095   -1314.5907   -17.170066    21861.211    3.1825739    27.961346 
    3760    1.0685865   -1314.6117   -14.573007    21859.262    3.1828577    27.960515 
    3770    1.0598401   -1314.6314   -11.492337    21857.008     3.183186    27.959554 
    3780    1.0509541   -1314.6496   -8.0252579    21854.514    3.1835492     27.95849 
    3790     1.042013   -1314.6665    -4.281483    21851.853    3.1839369    27.957355 
    3800    1.0331019   -1314.6821  -0.37987503    21849.103    3.1843376    27.956183 
    3810    1.0243056   -1314.6964    3.5552432    21846.347    3.1847393    27.955007 
    3820    1.0157078   -1314.7097        7.398    21843.666    3.1851302    27.953864 
    3830    1.0073906   -1314.7219     11.02499     21841.14    3.1854985    27.952786 
    3840   0.99943408   -1314.7332    14.319264    21838.846    3.1858331    27.951808 
    3850   0.99191534   -1314.7438     17.17416    21836.853     3.186124    27.950957 
    3860   0.98490835   -1314.7537    19.496834    21835.218    3.1863625     27.95026 
    3870   0.97848315   -1314.7633     21.21137    21833.992    3.1865414    27.949736 
    3880   0.97270528   -1314.7725    22.261342    21833.209    3.1866557    27.949402 
    3890   0.96763523   -1314.7815    22.611732    21832.892     3.186702    27.949267 
    3900   0.96332768   -1314.7903     22.25013    21833.047    3.1866793    27.949333 
    3910    0.9598308   -1314.7992    21.187158    21833.667    3.1865888    27.949598 
    3920    0.9571854    -1314.808     19.45611     21834.73    3.1864337    27.950051 
    3930   0.95542399   -1314.8168    17.111826      21836.2    3.1862193    27.950678 
    3940   0.95456971   -1314.8256    14.228831    21838.027    3.1859527    27.951458 
    3950    0.9546352   -1314.8344    10.898825    21840.151    3.1856428    27.952364 
    3960    0.9556213   -1314.8432     7.227622    21842.503    3.1852997    27.953368 
    3970   0.95751578    -1314.852    3.3316526    21845.007    3.1849347    27.954436 
    3980   0.96029204   -1314.8607  -0.66584191    21847.579    3.1845597    27.955533 
    3990   0.96390796   -1314.8695   -4.6387845    21850.138    3.1841867    27.956624 
    4000   0.96830496   -1314.8783    -8.462274      21852.6     3.183828    27.957674 
    4010   0.97340744   -1314.8871   -12.016502    21854.885    3.1834952    27.958648 
    4020   0.97912269   -1314.8961   -15.190458    21856.917    3.1831991    27.959515 
    4030   0.98534145   -1314.9051   -17.885312    21858.632    3.1829494    27.960246 
    4040   0.99193901   -1314.9144    -20.01739    21859.972    3.1827543    27.960818 
    4050   0.99877712   -1314.9238    -21.52066    21860.893    3.1826202     27.96121 
    4060    1.0057065   -1314.9335   -22.348679    21861.363    3.1825518    27.961411 
    4070    1.0125697   -1314.9434   -22.475947    21861.365    3.1825515    27.961412 
    4080     1.019205   -1314.9535   -21.898648    21860.896    3.1826197    27.961212 
    4090    1.0254503   -1314.9637   -20.634758    21859.969    3.1827547    27.960816 
    4100    1.0311476    -1314.974   -18.723515     21858.61    3.1829526    27.960237 
    4110    1.0361478   -1314.9843   -16.224277     21856.86    3.1832075    27.959491 
    4120    1.0403158   -1314.9945   -13.214765     21854.77    3.1835119      27.9586 
    4130    1.0435361   -1315.0045   -9.7887621    21852.405    3.1838565    27.957591 
    4140     1.045718   -1315.0143   -6.0532926    21849.835    3.1842308    27.956495 
    4150    1.0468003   -1315.0238    -2.125374     21847.14    3.1846237    27.955346 
    4160    1.0467561   -1315.0328    1.8715851    21844.402    3.1850229    27.954178 
    4170    1.0455948   -1315.0415     5.811633    21841.704    3.1854164    27.953026 
    4180    1.0433628   -1315.0499    9.5702542    21839.128    3.1857921    27.951928 
    4190    1.0401413   -1315.0578    13.028354    21836.753    3.1861386    27.950914 
    4200    1.0360415   -1315.0654    16.076113    21834.651    3.1864453    27.950018 
    4210    1.0311976   -1315.0727     18.61658    21832.886    3.1867029    27.949264 
    4220    1.0257577   -1315.0798    20.568875     21831.51    3.1869037    27.948677 
    4230     1.019876   -1315.0867     21.87088    21830.565    3.1870417    27.948274 
    4240    1.0137038   -1315.0934     22.48132    21830.077     3.187113    27.948066 
    4250     1.007384      -1315.1    22.381156    21830.058    3.1871157    27.948058 
    4260    1.0010465   -1315.1064    21.574222    21830.507    3.1870501    27.948249 
    4270   0.99480612   -1315.1127    20.087097    21831.407    3.1869188    27.948633 
    4280   0.98876188   -1315.1187    17.968201    21832.726    3.1867262    27.949196 
    4290   0.98299783   -1315.1244    15.286154    21834.421    3.1864788    27.949919 
    4300   0.97758436   -1315.1298    12.127475    21836.435    3.1861849    27.950779 
    4310   0.97257997   -1315.1348    8.5936851    21838.702    3.1858541    27.951746 
    4320   0.96803299   -1315.1394    4.7979542    21841.149    3.1854972     27.95279 
    4330   0.96398329   -1315.1435   0.86139391    21843.697    3.1851257    27.953877 
    4340   0.96046368   -1315.1471   -3.0908579    21846.262    3.1847518    27.954971 
    4350   0.95750104   -1315.1502   -6.9336303    21848.762    3.1843873    27.956037 
    4360   0.95511702   -1315.1528   -10.545659    21851.117     3.184044    27.957042 
    4370   0.95332852   -1315.1549   -13.813352    21853.252    3.1837331    27.957952 
    4380   0.95214765   -1315.1566   -16.634263    21855.097    3.1834643    27.958739 
    4390   0.95158146   -1315.1579   -18.920195    21856.594    3.1832462    27.959377 
    4400   0.95163112   -1315.1588   -20.599831    21857.695    3.1830859    27.959847 
    4410   0.95229101   -1315.1593   -21.620849    21858.364    3.1829885    27.960132 
    4420   0.95354736   -1315.1596   -21.951458    21858.581    3.1829569    27.960224 
    4430   0.95537692   -1315.1594   -21.581335    21858.338    3.1829923    27.960121 
    4440   0.95774559    -1315.159   -20.521922    21857.643    3.1830935    27.959825 
    4450   0.96060745   -1315.1581   -18.806104    21856.519    3.1832572    27.959345 
    4460   0.96390425   -1315.1567   -16.487249    21855.001    3.1834782    27.958698 
    4470   0.96756568   -1315.1548   -13.637645     21853.14    3.1837494    27.957904 
    4480   0.97151065   -1315.1524    -10.34636    21850.993    3.1840622    27.956989 
    4490   0.97564942   -1315.1493   -6.7165792    21848.631    3.1844064    27.955981 
    4500   0.97988664   -1315.1456    -2.862479    21846.129    3.1847711    27.954914 
    4510   0.98412495   -1315.1411    1.0942744    21843.568    3.1851445    27.953822 
    4520   0.98826874    -1315.136    5.0283116    21841.031    3.1855145     27.95274 
    4530   0.99222789   -1315.1301    8.8145159      21838.6    3.1858691    27.951702 
    4540   0.99592086   -1315.1237    12.332025    21836.354    3.1861967    27.950744 
    4550   0.99927729   -1315.1167    15.468149    21834.367    3.1864867    27.949896 
    4560    1.0022397   -1315.1091    18.122066    21832.704    3.1867294    27.949187 
    4570    1.0047646   -1315.1012    20.208169     21831.42    3.1869169    27.948639 
    4580    1.0068225   -1315.0929    21.658925    21830.558    3.1870427    27.948271 
    4590    1.0083981   -1315.0844     22.42716    21830.149    3.1871023    27.948097 
    4600    1.0094895   -1315.0756    22.487653    21830.209    3.1870936    27.948122 
    4610    1.0101071   -1315.0666    21.837999    21830.739    3.1870163    27.948348 
    4620    1.0102725   -1315.0575    20.498686    21831.725    3.1868724    27.948769 
    4630    1.0100171   -1315.0482    18.512401    21833.139     3.186666    27.949372 
    4640    1.0093807   -1315.0388    15.942584    21834.939    3.1864032    27.950141 
    4650    1.0084102   -1315.0292    12.871281    21837.073    3.1860918    27.951051 
    4660    1.0071575   -1315.0194    9.3964005    21839.476    3.1857413    27.952076 
    4670    1.0056782   -1315.0094    5.6284624    21842.075    3.1853623    27.953185 
    4680      1.00403   -1314.9992    1.6869692    21844.791    3.1849661    27.954344 
    4690    1.0022712   -1314.9889   -2.3034685    21847.543     3.184565    27.955517 
    4700    1.0004589   -1314.9784     -6.21712    21850.247     3.184171     27.95667 
    4710   0.99864788   -1314.9677   -9.9311006     21852.82     3.183796    27.957768 
    4720   0.99688921   -1314.9571   -13.329193    21855.185    3.1834514    27.958776 
    4730   0.99522885   -1314.9464   -16.305412    21857.271    3.1831476    27.959666 
    4740   0.99370671   -1314.9358   -18.767207    21859.016    3.1828936     27.96041 
    4750   0.99235567   -1314.9254   -20.638228    21860.367    3.1826968    27.960986 
    4760   0.99120086   -1314.9152   -21.860583    21861.286     3.182563    27.961378 
    4770   0.99025906   -1314.9051   -22.396526    21861.747    3.1824959    27.961574 
    4780    0.9895384   -1314.8954   -22.229559    21861.739    3.1824971    27.961571 
    4790   0.98903815   -1314.8858   -21.364903    21861.265     3.182566    27.961369 
    4800   0.98874895   -1314.8763   -19.829342    21860.345    3.1827001    27.960977 
    4810   0.98865307    -1314.867   -17.670441    21859.009    3.1828945    27.960407 
    4820   0.98872513   -1314.8577   -14.955147    21857.304    3.1831429     27.95968 
    4830   0.98893289   -1314.8483    -11.76782    21855.286    3.1834367     27.95882 
    4840   0.98923838   -1314.8388   -8.2077144    21853.023    3.1837664    27.957854 
    4850   0.98959911   -1314.8291   -4.3859969    21850.589    3.1841211    27.956816 
    4860   0.98996952    -1314.819  -0.42235685    21848.064    3.1844891     27.95574 
    4870   0.99030241   -1314.8086    3.5586892    21845.531    3.1848583    27.954659 
    4880   0.99055045   -1314.7978    7.4316966    21843.074    3.1852166    27.953611 
    4890   0.99066763   -1314.7866    11.074275    21840.773    3.1855522    27.952629 
    4900   0.99061065    -1314.775    14.371023    21838.704    3.1858539    27.951747 
    4910   0.99034011   -1314.7629    17.217292    21836.936    3.1861118    27.950993 
    4920   0.98982161   -1314.7505    19.522624    21835.529    3.1863171    27.950392 
    4930   0.98902654   -1314.7376    21.213767    21834.531    3.1864628    27.949966 
    4940   0.98793274   -1314.7243    22.237117    21833.976    3.1865438    27.949729 
    4950   0.98652484   -1314.7106    22.560528    21833.886    3.1865569    27.949691 
    4960   0.98479437   -1314.6965    22.174387    21834.267    3.1865013    27.949854 
    4970   0.98273957   -1314.6819    21.091931    21835.112     3.186378    27.950214 
    4980   0.98036496   -1314.6667     19.34878    21836.398    3.1861904    27.950763 
    4990   0.97768059   -1314.6509    17.001716    21838.087    3.1859439    27.951484 
    5000   0.97470116   -1314.6344    14.126752    21840.132    3.1856455    27.952356 
    5010   0.97144474   -1314.6172    10.816564    21842.473    3.1853042    27.953355 
    5020   0.96793154   -1314.5991    7.1773952    21845.039      3.18493    27.954449 
    5030    0.9641824   -1314.5802     3.325545    21847.756     3.184534    27.955608 
    5040   0.96021749   -1314.5604  -0.61642889    21850.541     3.184128    27.956796 
    5050   0.95605496   -1314.5397   -4.5236575    21853.314     3.183724    27.957979 
    5060   0.95171003   -1314.5182   -8.2729254    21855.992    3.1833339    27.959121 
    5070   0.94719436   -1314.4958   -11.746526    21858.497    3.1829691    27.960189 
    5080   0.94251607   -1314.4727   -14.835892    21860.755    3.1826403    27.961152 
    5090   0.93768023   -1314.4489    -17.44489    21862.703    3.1823568    27.961982 
    5100   0.93268999   -1314.4245   -19.492707    21864.285    3.1821265    27.962656 
    5110   0.92754814   -1314.3996   -20.916237    21865.458    3.1819557    27.963157 
    5120   0.92225893   -1314.3742    -21.67193    21866.193    3.1818488     27.96347 
    5130   0.91682993   -1314.3484    -21.73705    21866.474    3.1818079     27.96359 
    5140   0.91127359   -1314.3223   -21.110325      21866.3    3.1818333    27.963515 
    5150   0.90560842   -1314.2958   -19.811968    21865.683     3.181923    27.963252 
    5160   0.89985954   -1314.2691   -17.883078    21864.652    3.1820731    27.962813 
    5170   0.89405869   -1314.2421   -15.384425    21863.246    3.1822777    27.962213 
    5180   0.88824368   -1314.2148   -12.394657    21861.518    3.1825292    27.961477 
    5190   0.88245757   -1314.1873   -9.0079576    21859.532    3.1828184     27.96063 
    5200   0.87674761   -1314.1595   -5.3312132    21857.358     3.183135    27.959703 
    5210   0.87116724    -1314.107   -1.3295489    21855.073    3.1834678    27.958729 
    5220   0.86578135    -1314.079    2.5692546     21852.76    3.1838048    27.957742 
    5230   0.86062515   -1314.0509    6.3906587    21850.501    3.1841338    27.956779 
    5240   0.85575347   -1314.0229    10.012521    21848.377    3.1844434    27.955873 
    5250   0.85122183    -1313.995     13.31865    21846.464    3.1847223    27.955057 
    5260   0.84708611   -1313.9674    16.202586     21844.83    3.1849605     27.95436 
    5270   0.84340218   -1313.9402    18.571101    21843.535    3.1851493    27.953808 
    5280   0.84022568   -1313.9136    20.347297    21842.629    3.1852815    27.953421 
    5290   0.83761157   -1313.8877    21.473182    21842.148    3.1853515    27.953216 
    5300   0.83561378   -1313.8626    21.911624    21842.117     3.185356    27.953203 
    5310   0.83428473   -1313.8383    21.647607    21842.545    3.1852937    27.953385 
    5320   0.83367487    -1313.815    20.688741    21843.424    3.1851654    27.953761 
    5330   0.83386078   -1313.7437    19.366475    21844.737     3.184974    27.954321 
    5340   0.83490131   -1313.7226    17.120139    21846.454    3.1847237    27.955053 
    5350   0.83678947   -1313.7025    14.321983    21848.529    3.1844213    27.955938 
    5360   0.83957858    -1313.659    11.211486    21850.903    3.1840753     27.95695 
    5370   0.84330246   -1313.6412    7.5857166    21853.511    3.1836952    27.958063 
    5380   0.84796465   -1313.6246     3.710058    21856.278    3.1832922    27.959243 
    5390   0.85358599   -1313.5845   -0.1420863    21859.123     3.182878    27.960456 
    5400   0.86020328   -1313.5456   -3.9990579    21861.962    3.1824645    27.961666 
    5410   0.86782026    -1313.508   -7.7407543    21864.717    3.1820636    27.962841 
    5420    0.8764253   -1313.4717    -11.25218     21867.31    3.1816863    27.963946 
    5430   0.88598153   -1313.4614   -14.574728    21869.666    3.1813435     27.96495 
    5440   0.89648572    -1313.428   -17.304707    21871.718     3.181045    27.965825 
    5450   0.90790195   -1313.3961   -19.507779    21873.407    3.1807995    27.966544 
    5460   0.92021101   -1313.3659   -21.117243    21874.686    3.1806134     27.96709 
    5470   0.93330414   -1313.3619   -22.233951    21875.523    3.1804917    27.967446 
    5480    0.9471132   -1313.3595   -22.672897    21875.893    3.1804379    27.967604 
    5490   0.96156526   -1313.3834   -22.572099    21875.788    3.1804532    27.967559 
    5500   0.97657365   -1313.3844   -21.634366     21875.21    3.1805372    27.967313 
    5510   0.99201349    -1313.387   -20.039428    21874.179    3.1806872    27.966874 
    5520    1.0077558   -1313.3913   -17.837332    21872.728    3.1808982    27.966255 
    5530    1.0236524    -1313.397   -15.097036    21870.903    3.1811636    27.965477 
    5540    1.0395438   -1313.4287   -12.054329    21868.762    3.1814751    27.964565 
    5550    1.0552438   -1313.4619   -8.6533582    21866.367    3.1818234    27.963544 
    5560    1.0705253   -1313.4718   -4.8514417    21863.793    3.1821981    27.962447 
    5570    1.0851385    -1313.483  -0.91963224    21861.118    3.1825875    27.961306 
    5580    1.0988055   -1313.4953    3.0176207    21858.425    3.1829796    27.960158 
    5590     1.111237   -1313.4844     6.984321    21855.797    3.1833623    27.959037 
    5600    1.1220883   -1313.4991    10.553793    21853.317    3.1837236     27.95798 
    5610    1.1310322    -1313.515    13.763141    21851.058    3.1840527    27.957017 
    5620    1.1377762   -1313.5321    16.509528    21849.089    3.1843397    27.956177 
    5630    1.1421171   -1313.5504    18.704984    21847.465    3.1845763    27.955484 
    5640    1.1440179   -1313.5944    20.128237    21846.234    3.1847558    27.954959 
    5650     1.143689   -1313.6151    21.035438    21845.425    3.1848738    27.954614 
    5660    1.1415677   -1313.6616    21.099494    21845.055    3.1849276    27.954456 
    5670    1.1382896   -1313.6848    20.622283    21845.128    3.1849171    27.954487 
    5680     1.134542    -1313.709    19.470916    21845.631    3.1848436    27.954702 
    5690    1.1309376   -1313.7589    17.534472    21846.542    3.1847109     27.95509 
    5700    1.1278623   -1313.7852    15.178406    21847.819    3.1845248    27.955635 
    5710    1.1255016   -1313.8371    12.177816    21849.413    3.1842924    27.956315 
    5720    1.1238873   -1313.8652     8.931172    21851.263    3.1840229    27.957104 
    5730     1.122942   -1313.9186     5.241239    21853.299    3.1837262    27.957972 
    5740    1.1226142   -1313.9972    1.2254854    21855.445    3.1834136    27.958887 
    5750    1.1227766   -1314.0272    -2.534994    21857.617    3.1830972    27.959814 
    5760    1.1232651   -1314.0577   -6.2208588    21859.737    3.1827886    27.960717 
    5770    1.1239698   -1314.0885   -9.7146618    21861.725    3.1824991    27.961565 
    5780    1.1247921   -1314.1196   -12.905264     21863.51    3.1822392    27.962326 
    5790    1.1257241      -1314.2   -15.991283    21865.023    3.1820191    27.962971 
    5800    1.1266381   -1314.2316   -18.273126    21866.201    3.1818477    27.963473 
    5810    1.1274333   -1314.2632   -19.979961    21866.996     3.181732    27.963812 
    5820    1.1280432   -1314.2949   -21.057171    21867.372    3.1816773    27.963972 
    5830     1.128409   -1314.3265   -21.469774    21867.306    3.1816868    27.963944 
    5840    1.1284792   -1314.3579   -21.203469    21866.792    3.1817617    27.963725 
    5850    1.1282099   -1314.3891   -20.265069    21865.833    3.1819013    27.963316 
    5860    1.1275647   -1314.4199   -18.682318    21864.449    3.1821026    27.962727 
    5870    1.1265143   -1314.4502   -16.503092    21862.675    3.1823608     27.96197 
    5880    1.1250371   -1314.4799   -13.794004    21860.557    3.1826692    27.961067 
    5890    1.1231184   -1314.5088   -10.638441     21858.15    3.1830197    27.960041 
    5900    1.1207503   -1314.5369   -7.1340791    21855.521    3.1834025     27.95892 
    5910    1.1179314   -1314.5641    -3.389937    21852.745     3.183807    27.957736 
    5920    1.1146666   -1314.5903   0.47695808    21849.898    3.1842217    27.956522 
    5930    1.1109662   -1314.6154    4.3451974    21847.063    3.1846349    27.955313 
    5940    1.1068457   -1314.6395    8.0928085     21844.32    3.1850348    27.954143 
    5950    1.1023252   -1314.6625    11.601144    21841.747      3.18541    27.953045 
    5960    1.0974289   -1314.6844    14.758718    21839.419    3.1857497    27.952052 
    5970    1.0921848   -1314.7054    17.464852    21837.399    3.1860443     27.95119 
    5980    1.0866237   -1314.7254    19.633011    21835.746    3.1862855    27.950485 
    5990     1.080779   -1314.7446    21.193693    21834.503    3.1864668    27.949954 
    6000    1.0746862   -1314.7629    22.096776    21833.704    3.1865835    27.949613 
    6010    1.0683826   -1314.7804    22.313215    21833.367    3.1866327     27.94947 
    6020    1.0619063   -1314.7971    21.836036    21833.496    3.1866138    27.949525 
    6030    1.0552965    -1314.813    20.680576    21834.081    3.1865284    27.949775 
    6040    1.0485929   -1314.8282    18.883963    21835.099    3.1863799    27.950209 
    6050    1.0418352   -1314.8425    16.503862    21836.511    3.1861738    27.950811 
    6060    1.0350632    -1314.856     13.61653    21838.268    3.1859175    27.951561 
    6070    1.0283163   -1314.8687    10.314258     21840.31    3.1856197    27.952432 
    6080    1.0216338   -1314.8804    6.7023073    21842.567    3.1852905    27.953395 
    6090    1.0150543   -1314.8913    2.8954435    21844.963     3.184941    27.954417 
    6100    1.0086159   -1314.9013  -0.98579119    21847.421    3.1845828    27.955465 
    6110    1.0023563   -1314.9105     -4.81895    21849.857    3.1842277    27.956504 
    6120   0.99631242   -1314.9189   -8.4835584    21852.192    3.1838874      27.9575 
    6130     0.990521   -1314.9265   -11.864877     21854.35    3.1835731     27.95842 
    6140   0.98501826   -1314.9334   -14.857434    21856.259    3.1832951    27.959234 
    6150   0.97984013   -1314.9398   -17.368233    21857.856    3.1830624    27.959916 
    6160    0.9750223   -1314.9456   -19.319542     21859.09    3.1828827    27.960442 
    6170   0.97060031   -1314.9509   -20.651203    21859.919     3.182762    27.960795 
    6180   0.96660956   -1314.9559   -21.322396    21860.316    3.1827042    27.960964 
    6190   0.96308524   -1314.9606   -21.312837    21860.266    3.1827115    27.960943 
    6200    0.9600622   -1314.9649   -20.623358     21859.77    3.1827837    27.960732 
    6210   0.95757471   -1314.9689   -19.275881    21858.842    3.1829188    27.960336 
    6220   0.95565595   -1314.9726   -17.312775    21857.511    3.1831126    27.959769 
    6230   0.95433733    -1314.976   -14.795606    21855.819    3.1833591    27.959047 
    6240   0.95364759    -1314.979   -11.803323    21853.817    3.1836507    27.958193 
    6250   0.95361148   -1314.9816    -8.429904    21851.569    3.1839783    27.957234 
    6260   0.95424816   -1314.9838   -4.7815276    21849.146    3.1843314    27.956201 
    6270   0.95556931   -1314.9857  -0.97334324    21846.623    3.1846991    27.955125 
    6280   0.95757697   -1314.9871     2.874081    21844.082    3.1850696    27.954041 
    6290   0.96026129   -1314.9882    6.6385253    21841.601    3.1854313    27.952983 
    6300   0.96359844   -1314.9889     10.19999    21839.261    3.1857727    27.951984 
    6310   0.96754888   -1314.9894    13.444549    21837.134    3.1860829    27.951077 
    6320    0.9720564   -1314.9897    16.268054     21835.29     3.186352     27.95029 
    6330   0.97704821   -1314.9898    18.579561    21833.786    3.1865715    27.949649 
    6340   0.98243612   -1314.9898    20.304359    21832.671    3.1867342    27.949173 
    6350   0.98811892   -1314.9898    21.386478    21831.981     3.186835    27.948878 
    6360   0.99398566   -1314.9899    21.790583    21831.738    3.1868705    27.948774 
    6370   0.99991946     -1314.99     21.50318     21831.95    3.1868395    27.948865 
    6380    1.0058014   -1314.9901     20.53308    21832.611     3.186743    27.949147 
    6390    1.0115142   -1314.9902    18.911107    21833.701    3.1865839    27.949612 
    6400    1.0169448   -1314.9903    16.689051    21835.186    3.1863671    27.950246 
    6410    1.0219869   -1314.9903    13.937925     21837.02    3.1860995    27.951028 
    6420    1.0265422   -1314.9903    10.745578    21839.145    3.1857895    27.951935 
    6430    1.0305217     -1314.99    7.2137669    21841.494    3.1854469    27.952937 
    6440    1.0338461   -1314.9896    3.4547997    21843.994    3.1850823    27.954004 
    6450    1.0364467    -1314.989  -0.41212837    21846.566    3.1847074    27.955101 
    6460     1.038266   -1314.9881   -4.2647735    21849.129    3.1843338    27.956194 
    6470    1.0392589   -1314.9871   -7.9817276    21851.603    3.1839733    27.957249 
    6480    1.0393938   -1314.9858   -11.446221    21853.909    3.1836374    27.958232 
    6490    1.0386545   -1314.9844   -14.549728    21855.975    3.1833364    27.959113 
    6500    1.0370417   -1314.9829   -17.195273    21857.736    3.1830798    27.959864 
    6510    1.0345747   -1314.9813   -19.300347    21859.138    3.1828758    27.960462 
    6520    1.0312928   -1314.9796   -20.799359    21860.134    3.1827307    27.960887 
    6530    1.0272558    -1314.978   -21.645571    21860.695     3.182649    27.961126 
    6540    1.0225432   -1314.9764   -21.812464    21860.803    3.1826333    27.961172 
    6550    1.0172527   -1314.9748   -21.294518    21860.454    3.1826841    27.961023 
    6560    1.0114965   -1314.9732   -20.107378    21859.659    3.1827998    27.960684 
    6570    1.0053972   -1314.9715   -18.287405    21858.444    3.1829768    27.960166 
    6580   0.99908276   -1314.9698   -15.890629    21856.846    3.1832095    27.959485 
    6590   0.99268142   -1314.9678   -12.991108    21854.916    3.1834906    27.958662 
    6600   0.98631744   -1314.9657   -9.6787428    21852.716    3.1838112    27.957723 
    6610   0.98010782   -1314.9633   -6.0565926    21850.313    3.1841612    27.956699 
    6620   0.97416035   -1314.9605   -2.2377501    21847.785    3.1845297    27.955621 
    6630   0.96857299   -1314.9574    1.6581302    21845.211    3.1849049    27.954523 
    6640   0.96343421    -1314.954    5.5085605    21842.673    3.1852749     27.95344 
    6650   0.95882395   -1314.9501    9.1920903    21840.252    3.1856281    27.952407 
    6660    0.9548148   -1314.9459    12.592197    21838.024    3.1859532    27.951457 
    6670    0.9514728   -1314.9414    15.601063    21836.059    3.1862397    27.950618 
    6680   0.94885756   -1314.9366    18.123118    21834.422    3.1864787     27.94992 
    6690   0.94702107   -1314.9316    20.078195    21833.164    3.1866623    27.949383 
    6700   0.94600488   -1314.9263    21.404205    21832.326    3.1867846    27.949025 
    6710    0.9458353   -1314.9208     22.05921    21831.936    3.1868416    27.948859 
    6720   0.94651645   -1314.9151    22.022815    21832.006    3.1868313    27.948889 
    6730   0.94802199   -1314.9091    21.296826    21832.537    3.1867538    27.949115 
    6740   0.95028676   -1314.9029    19.905154    21833.512    3.1866114    27.949532 
    6750   0.95320106   -1314.8963    17.892965    21834.904    3.1864084    27.950125 
    6760   0.95661038   -1314.8892    15.325136    21836.669    3.1861508    27.950879 
    6770   0.96032332   -1314.8817    12.284063    21838.754    3.1858466    27.951768 
    6780   0.96412757   -1314.8737    8.8669418    21841.096     3.185505    27.952767 
    6790   0.96781136    -1314.865    5.1825826    21843.622    3.1851365    27.953845 
    6800   0.97118505   -1314.8556    1.3478935    21846.257    3.1847524    27.954969 
    6810   0.97409765   -1314.8455   -2.5158702     21848.92    3.1843643    27.956105 
    6820   0.97644522   -1314.8348   -6.2869651     21851.53    3.1839839    27.957218 
    6830   0.97817119   -1314.8235   -9.8469994    21854.008    3.1836229    27.958275 
    6840   0.97926091   -1314.8115   -13.084627     21856.28     3.183292    27.959243 
    6850   0.97973332    -1314.799   -15.898982    21858.277    3.1830011    27.960095 
    6860   0.97963223    -1314.786   -18.202743    21859.941    3.1827588    27.960804 
    6870   0.97901847   -1314.7727   -19.924759    21861.224    3.1825721    27.961351 
    6880   0.97796358   -1314.7591   -21.012161    21862.089    3.1824461     27.96172 
    6890   0.97654487   -1314.7452   -21.431905    21862.514    3.1823843    27.961901 
    6900   0.97484159   -1314.7312   -21.171736     21862.49    3.1823878    27.961891 
    6910   0.97293198    -1314.717   -20.240534    21862.023    3.1824558    27.961692 
    6920   0.97089084   -1314.7026   -18.668039    21861.132    3.1825855    27.961312 
    6930   0.96878756   -1314.6882   -16.503972     21859.85    3.1827721    27.960766 
    6940   0.96668452   -1314.6737   -13.816564    21858.224    3.1830089    27.960072 
    6950   0.96463585    -1314.659   -10.690521    21856.309    3.1832878    27.959256 
    6960   0.96268667   -1314.6443   -7.2244871    21854.171    3.1835992    27.958344 
    6970   0.96087286   -1314.6294   -3.5280528    21851.882    3.1839326    27.957368 
    6980   0.95922135   -1314.6145   0.28160861    21849.521    3.1842766    27.956361 
    6990   0.95775117   -1314.5995    4.0833827    21847.167    3.1846197    27.955357 
    7000   0.95647487   -1314.5846    7.7560296      21844.9    3.1849503     27.95439 
    7010   0.95540047   -1314.5697    11.182056    21842.795    3.1852572    27.953492 
    7020   0.95453355    -1314.555    14.251515    21840.926    3.1855298    27.952695 
    7030   0.95387915   -1314.5406    16.865604    21839.355    3.1857589    27.952025 
    7040   0.95344347   -1314.5266    18.939934    21838.137    3.1859366    27.951505 
    7050   0.95323489    -1314.513    20.407344    21837.316    3.1860564    27.951155 
    7060   0.95326442   -1314.4999    21.220153    21836.921     3.186114    27.950986 
    7070   0.95354546   -1314.4874    21.351773    21836.971    3.1861068    27.951007 
    7080   0.95409313   -1314.4755    20.797598    21837.466    3.1860345    27.951219 
    7090   0.95492317   -1314.4642    19.575159    21838.396    3.1858988    27.951616 
    7100   0.95605072   -1314.4535    17.723513    21839.736    3.1857034    27.952187 
    7110   0.95748902   -1314.4435     15.30192    21841.445    3.1854541    27.952916 
    7120   0.95924836    -1314.434     12.38783    21843.474    3.1851582    27.953782 
    7130   0.96133509   -1314.4251    9.0742925    21845.762    3.1848246    27.954758 
    7140   0.96375101   -1314.4167    5.4668586     21848.24    3.1844634    27.955814 
    7150   0.96649293   -1314.4088    1.6801163    21850.831    3.1840858     27.95692 
    7160   0.96955247   -1314.4014   -2.1660306    21853.457    3.1837031     27.95804 
    7170   0.97291604   -1314.3945   -5.9502038    21856.038    3.1833272     27.95914 
    7180   0.97656499   -1314.3881   -9.5533849    21858.493    3.1829696    27.960187 
    7190   0.98047576   -1314.3824   -12.862623    21860.749    3.1826413    27.961149 
    7200   0.98462017   -1314.3772   -15.774505    21862.734    3.1823522    27.961995 
    7210   0.98896558   -1314.3727   -18.198289    21864.389    3.1821114    27.962701 
    7220   0.99347516   -1314.3689   -20.058623    21865.662    3.1819261    27.963243 
    7230   0.99810805   -1314.3658   -21.297774    21866.514    3.1818021    27.963607 
    7240    1.0028195   -1314.3635   -21.877326     21866.92     3.181743     27.96378 
    7250    1.0075608   -1314.3619   -21.779295    21866.868    3.1817506    27.963758 
    7260    1.0122796    -1314.361   -21.006651     21866.36    3.1818246    27.963541 
    7270    1.0169199   -1314.3609   -19.583226    21865.411    3.1819626    27.963136 
    7280    1.0214216   -1314.3613   -17.553022    21864.053    3.1821603    27.962557 
    7290    1.0257212   -1314.3624   -14.978913    21862.327    3.1824114    27.961822 
    7300    1.0297511   -1314.3638   -11.940798    21860.289    3.1827081    27.960953 
    7310      1.03344   -1314.3657   -8.5332191    21858.002    3.1830412    27.959978 
    7320    1.0367127   -1314.3679   -4.8625247    21855.537    3.1834002    27.958926 
    7330    1.0394904   -1314.3704   -1.0436317    21852.971     3.183774    27.957832 
    7340    1.0416908    -1314.373    2.8035148    21850.385    3.1841508    27.956729 
    7350    1.0432296   -1314.3758     6.557689    21847.858     3.184519    27.955652 
    7360    1.0440216   -1314.3788    10.100225     21845.47    3.1848671    27.954633 
    7370    1.0439843   -1314.3819    13.318832    21843.295    3.1851843    27.953705 
    7380    1.0430435   -1314.3852    16.111253    21841.398    3.1854609    27.952896 
    7390     1.041141   -1314.3887    18.388645     21839.84    3.1856882    27.952231 
    7400    1.0382477   -1314.3923     20.07856    21838.667    3.1858594    27.951731 
    7410    1.0343778   -1314.3962    21.127411    21837.913    3.1859692     27.95141 
    7420    1.0296053   -1314.4003    21.502323    21837.602    3.1860147    27.951277 
    7430    1.0240763   -1314.4046    21.192281     21837.74    3.1859945    27.951336 
    7440     1.018011    -1314.409    20.208517    21838.322    3.1859097    27.951584 
    7450     1.011689   -1314.4136    18.584094    21839.325    3.1857633    27.952012 
    7460     1.005419   -1314.4182    16.372704    21840.717    3.1855602    27.952606 
    7470   0.99949636   -1314.4228    13.646754    21842.451    3.1853073    27.953346 
    7480   0.99416451   -1314.4273    10.494833    21844.471    3.1850129    27.954207 
    7490   0.98958876   -1314.4317    7.0187071    21846.709    3.1846866    27.955162 
    7500   0.98584922   -1314.4358    3.3299612    21849.094     3.184339    27.956179 
    7510   0.98294963   -1314.4396  -0.45360364    21851.548    3.1839813    27.957225 
    7520   0.98083532   -1314.4431   -4.2117036    21853.992    3.1836252    27.958268 
    7530   0.97941334   -1314.4463   -7.8253348    21856.348     3.183282    27.959272 
    7540   0.97857011    -1314.449   -11.180457     21858.54    3.1829629    27.960207 
    7550    0.9781847   -1314.4512   -14.171491    21860.497    3.1826779    27.961041 
    7560   0.97813776   -1314.4531   -16.704525    21862.157    3.1824362    27.961749 
    7570   0.97831687   -1314.4544   -18.700144    21863.467    3.1822456    27.962308 
    7580   0.97861951   -1314.4553   -20.095805    21864.385     3.182112    27.962699 
    7590   0.97895456   -1314.4557   -20.847692    21864.881    3.1820397    27.962911 
    7600   0.97924298   -1314.4556   -20.932018    21864.941    3.1820309    27.962936 
    7610   0.97941814   -1314.4549    -20.34573    21864.563     3.182086    27.962775 
    7620     0.979426   -1314.4535    -19.10661    21863.759    3.1822031    27.962432 
    7630   0.97922529   -1314.4515   -17.252767    21862.554    3.1823784    27.961919 
    7640   0.97878756   -1314.4486   -14.841529    21860.989    3.1826062    27.961251 
    7650    0.9780973   -1314.4449   -11.947763    21859.114    3.1828792    27.960452 
    7660   0.97715178   -1314.4402   -8.6616536     21856.99    3.1831885    27.959546 
    7670   0.97596076   -1314.4345   -5.0860036    21854.686    3.1835242    27.958564 
    7680   0.97454571   -1314.4279   -1.3331144    21852.276    3.1838753    27.957536 
    7690   0.97293856   -1314.4202    2.4786645    21849.839    3.1842303    27.956497 
    7700   0.97117965   -1314.4115    6.2286211    21847.456    3.1845777     27.95548 
    7710   0.96931469   -1314.4019    9.7974893    21845.203     3.184906    27.954519 
    7720   0.96739042   -1314.3913     13.07126    21843.157    3.1852044    27.953647 
    7730   0.96544876     -1314.38    15.944863    21841.386    3.1854628    27.952891 
    7740   0.96351953    -1314.368    18.325598    21839.948    3.1856724    27.952278 
    7750   0.96161214   -1314.3554    20.136179    21838.894    3.1858262    27.951828 
    7760   0.95970779   -1314.3424    21.317298    21838.262    3.1859184    27.951558 
    7770   0.95775458    -1314.329    21.829596    21838.075    3.1859456    27.951478 
    7780   0.95566918   -1314.3153    21.654993    21838.345    3.1859063    27.951594 
    7790   0.95334884   -1314.3016    20.797332    21839.067    3.1858009    27.951902 
    7800   0.95069543   -1314.2877     19.28231    21840.225    3.1856321    27.952396 
    7810   0.94764862   -1314.2739    17.156709    21841.785    3.1854046    27.953061 
    7820   0.94421885   -1314.2602    14.486932    21843.703    3.1851248    27.953879 
    7830   0.94050611   -1314.2466    11.356845    21845.924     3.184801    27.954827 
    7840   0.93669456   -1314.2333    7.8650037    21848.382    3.1844426    27.955875 
    7850   0.93302534   -1314.2204    4.1213473    21851.005    3.1840605    27.956994 
    7860    0.9297613   -1314.2079   0.24353982    21853.713    3.1836659    27.958149 
    7870    0.9271573   -1314.1959   -3.6468847    21856.426    3.1832707    27.959306 
    7880   0.92544101   -1314.1847   -7.4284211    21859.062    3.1828868     27.96043 
    7890   0.92480177   -1314.1742   -10.983418    21861.542    3.1825257    27.961487 
    7900   0.92538355   -1314.1647   -14.201724    21863.792    3.1821983    27.962446 
    7910   0.92727968   -1314.1563   -16.984053    21865.743    3.1819143    27.963278 
    7920    0.9305294   -1314.1491   -19.244976    21867.338    3.1816821    27.963958 
    7930   0.93511727   -1314.1432   -20.915466     21868.53    3.1815088    27.964466 
    7940   0.94097733   -1314.1387   -21.944913    21869.283    3.1813992    27.964787 
    7950   0.94800243   -1314.1356   -22.302573    21869.576    3.1813566    27.964912 
    7960   0.95605776   -1314.1341   -21.978425    21869.402     3.181382    27.964837 
    7970   0.96499557   -1314.1341   -20.983411    21868.767    3.1814744    27.964567 
    7980   0.97466746   -1314.1356   -19.349082    21867.692    3.1816307    27.964109 
    7990   0.98493186   -1314.1386   -17.126661    21866.213     3.181846    27.963478 
    8000   0.99565565    -1314.143   -14.385538    21864.375    3.1821134    27.962695 
    8010    1.0067113   -1314.1486   -11.211242    21862.237    3.1824246    27.961783 
    8020    1.0179715   -1314.1555   -7.7029124    21859.865    3.1827699    27.960772 
    8030    1.0293025   -1314.1636   -3.9703417    21857.333    3.1831386    27.959692 
    8040    1.0405589   -1314.1728  -0.13065225    21854.719    3.1835193    27.958578 
    8050    1.0515782    -1314.183    3.6953015    21852.104    3.1839003    27.957463 
    8060    1.0621775   -1314.1942    7.3866994    21849.567    3.1842699    27.956381 
    8070    1.0721513   -1314.2064    10.826577    21847.186    3.1846169    27.955365 
    8080    1.0812712   -1314.2196    13.905579    21845.033    3.1849309    27.954447 
    8090    1.0892911   -1314.2337    16.525525    21843.172    3.1852023    27.953653 
    8100    1.0959593   -1314.2488    18.602668    21841.657    3.1854232    27.953007 
    8110    1.1010472   -1314.2649    20.070557    21840.531    3.1855873    27.952526 
    8120    1.1043992   -1314.2819    20.882394    21839.826    3.1856902    27.952226 
    8130    1.1060062   -1314.2998    21.012834    21839.558    3.1857294    27.952111 
    8140    1.1060857   -1314.3186    20.459062    21839.729    3.1857044    27.952184 
    8150     1.105122   -1314.3382    19.241012    21840.327    3.1856171    27.952439 
    8160    1.1038064   -1314.3587    17.400503    21841.328    3.1854711    27.952866 
    8170    1.1028613   -1314.3799     14.99932    21842.693    3.1852721    27.953448 
    8180    1.1028277   -1314.4017    12.116527    21844.371    3.1850275    27.954164 
    8190    1.1039349   -1314.4242    8.8455076    21846.302    3.1847459    27.954988 
    8200    1.1061118   -1314.4471    5.2909682    21848.417    3.1844376     27.95589 
    8210    1.1090912   -1314.4706    1.5658683    21850.643    3.1841132     27.95684 
    8220    1.1125274   -1314.4944   -2.2118676    21852.901    3.1837841    27.957803 
    8230    1.1160807   -1314.5185   -5.9228773    21855.113    3.1834619    27.958746 
    8240    1.1194653   -1314.5429   -9.4500124      21857.2    3.1831579    27.959636 
    8250    1.1224709   -1314.5675   -12.681953    21859.089    3.1828829    27.960441 
    8260    1.1249692   -1314.5922   -15.516646    21860.712    3.1826466    27.961133 
    8270    1.1269071   -1314.6171   -17.864449     21862.01    3.1824577    27.961686 
    8280    1.1282908   -1314.6421   -19.650897    21862.933    3.1823233     27.96208 
    8290    1.1291619   -1314.6671   -20.819002    21863.444    3.1822488    27.962298 
    8300    1.1295725   -1314.6921   -21.331024     21863.52    3.1822378     27.96233 
    8310    1.1295642    -1314.717   -21.169645    21863.148    3.1822919    27.962172 
    8320    1.1291571   -1314.7417   -20.338518    21862.334    3.1824105    27.961825 
    8330     1.128348   -1314.7661   -18.862165    21861.094     3.182591    27.961296 
    8340    1.1271162     -1314.79    -16.78526     21859.46    3.1828289    27.960599 
    8350    1.1254324   -1314.8135   -14.171296    21857.474     3.183118    27.959753 
    8360     1.123267   -1314.8363   -11.100696    21855.194    3.1834502     27.95878 
    8370    1.1205962   -1314.8583   -7.6684125    21852.682    3.1838161    27.957709 
    8380     1.117406   -1314.8794    -3.981068    21850.011    3.1842053     27.95657 
    8390    1.1136926   -1314.8996  -0.15370888    21847.258    3.1846065    27.955396 
    8400    1.1094619   -1314.9187    3.6937373    21844.504     3.185008    27.954221 
    8410    1.1047287   -1314.9368    7.4402085    21841.828    3.1853982     27.95308 
    8420    1.0995147   -1314.9538    10.967344    21839.309    3.1857656    27.952005 
    8430    1.0938479   -1314.9697    14.163285    21837.021    3.1860994    27.951029 
    8440    1.0877613   -1314.9846    16.926319     21835.03    3.1863899    27.950179 
    8450    1.0812928   -1314.9985    19.168228    21833.394    3.1866287    27.949481 
    8460    1.0744849   -1315.0115    20.817225    21832.159     3.186809    27.948954 
    8470    1.0673839   -1315.0236    21.820362    21831.359    3.1869257    27.948613 
    8480      1.06004   -1315.0349    22.145327    21831.016    3.1869759    27.948466 
    8490    1.0525066   -1315.0453    21.781537    21831.135    3.1869584    27.948517 
    8500    1.0448398    -1315.055    20.740504     21831.71    3.1868746    27.948762 
    8510    1.0370979   -1315.0639    19.055451    21832.717    3.1867275    27.949192 
    8520    1.0293408    -1315.072    16.780192    21834.123    3.1865223    27.949792 
    8530    1.0216293   -1315.0794    13.987321    21835.879    3.1862661    27.950541 
    8540    1.0140244   -1315.0859    10.765784    21837.927    3.1859673    27.951415 
    8550    1.0065868   -1315.0917    7.2179365    21840.199    3.1856358    27.952385 
    8560   0.99937642   -1315.0968    3.4561727    21842.622    3.1852824    27.953418 
    8570   0.99245175   -1315.1011  -0.40071727    21845.117    3.1849186    27.954483 
    8580   0.98586957   -1315.1048   -4.2313588    21847.603    3.1845562    27.955543 
    8590   0.97968456   -1315.1078   -7.9156322        21850    3.1842069    27.956565 
    8600   0.97394902   -1315.1103    -11.33842    21852.231    3.1838818    27.957517 
    8610   0.96871267   -1315.1123    -14.39315    21854.224    3.1835914    27.958367 
    8620   0.96402249   -1315.1139   -16.985028    21855.915    3.1833451    27.959088 
    8630    0.9599225   -1315.1153    -19.03388    21857.251    3.1831506    27.959657 
    8640   0.95645355   -1315.1164   -20.476527    21858.188    3.1830141    27.960057 
    8650   0.95365299   -1315.1173   -21.268635    21858.695    3.1829402    27.960273 
    8660   0.95155409   -1315.1181   -21.386009    21858.758    3.1829311      27.9603 
    8670    0.9501852   -1315.1187   -20.825286    21858.372    3.1829872    27.960136 
    8680   0.94956838   -1315.1192   -19.604029    21857.551    3.1831068    27.959786 
    8690   0.94971754   -1315.1195   -17.760211     21856.32    3.1832861    27.959261 
    8700   0.95063579   -1315.1196   -15.351106    21854.718    3.1835194    27.958577 
    8710   0.95231221   -1315.1194   -12.451608    21852.796    3.1837995    27.957758 
    8720   0.95471803   -1315.1187   -9.1520147    21850.613    3.1841175    27.956827 
    8730   0.95780265   -1315.1177   -5.5553355    21848.241    3.1844632    27.955815 
    8740   0.96149022    -1315.116   -1.7741753    21845.754    3.1848258    27.954754 
    8750   0.96567768   -1315.1138    2.0727116    21843.231    3.1851937    27.953678 
    8760   0.97023524    -1315.111    5.8641136    21840.752    3.1855551    27.952621 
    8770   0.97501001   -1315.1075    9.4801861    21838.398    3.1858986    27.951616 
    8780   0.97983286   -1315.1033    12.806291    21836.243     3.186213    27.950697 
    8790   0.98452794   -1315.0984    15.736721    21834.356    3.1864883    27.949892 
    8800   0.98892326   -1315.0928    18.178174      21832.8    3.1867155    27.949228 
    8810    0.9928608   -1315.0865    20.052854    21831.624    3.1868871    27.948726 
    8820   0.99620456   -1315.0795    21.301071    21830.867    3.1869976    27.948403 
    8830   0.99884594   -1315.0719    21.883239    21830.556     3.187043     27.94827 
    8840    1.0007063   -1315.0635     21.78121    21830.702    3.1870217    27.948332 
    8850    1.0017369   -1315.0544    20.998863    21831.303    3.1869339    27.948589 
    8860     1.001918   -1315.0446    19.561956    21832.342    3.1867822    27.949032 
    8870    1.0012558   -1315.0339    17.517233    21833.791    3.1865708     27.94965 
    8880   0.99978021   -1315.0224    14.930831    21835.604    3.1863062    27.950424 
    8890   0.99754115     -1315.01    11.886035     21837.73    3.1859961    27.951331 
    8900   0.99460582   -1314.9967    8.4805014    21840.103    3.1856498    27.952344 
    8910   0.99105516   -1314.9824    4.8230151    21842.653    3.1852779    27.953432 
    8920   0.98698046   -1314.9672    1.0299335    21845.303    3.1848915    27.954562 
    8930   0.98247955   -1314.9511    -2.778575    21847.975     3.184502    27.955702 
    8940   0.97765272    -1314.934   -6.4823643    21850.588    3.1841212    27.956816 
    8950   0.97259829   -1314.9161   -9.9650903    21853.064    3.1837604    27.957872 
    8960   0.96740768   -1314.8975   -13.117823    21855.332    3.1834301    27.958839 
    8970   0.96216035   -1314.8781   -15.842383    21857.324    3.1831399    27.959689 
    8980   0.95691871   -1314.8581   -18.054317    21858.984    3.1828981    27.960397 
[...]
   37860    118.26348   -1034.6181    10130.126    19312.834    3.6025225     26.82967 
   37870    117.81283   -1034.0925     10139.76    19311.908    3.6026952    26.829242 
   37880    117.58823   -1033.8724    10145.539    19311.005    3.6028638    26.828823 
   37890    117.52875   -1033.9615    10148.027    19310.124    3.6030281    26.828415 
   37900    117.56614   -1033.9383    10150.793    19309.267     3.603188    26.828018 
   37910    117.64613   -1033.9437    10153.354    19308.434    3.6033436    26.827633 
   37920    117.73947   -1033.9833    10155.955    19307.624    3.6034946    26.827258 
   37930    117.84184   -1034.1469    10158.023    19306.839    3.6036412    26.826894 
   37940    117.96732   -1034.2047    10161.041    19306.079    3.6037831    26.826542 
   37950    118.14097   -1034.0864    10165.304    19305.343    3.6039205    26.826201 
   37960    118.39201   -1034.1405    10168.183    19304.632    3.6040532    26.825872 
   37970    118.75079   -1034.2196    10170.556    19303.947    3.6041811    26.825554 
   37980    119.24573   -1034.2665    10172.741    19303.287    3.6043042    26.825249 
   37990    119.90092   -1034.4609    10173.477    19302.654    3.6044225    26.824955 
   38000    120.73071   -1034.7759    10173.017    19302.046     3.604536    26.824674 
   38010    121.73116   -1035.0257    10172.801    19301.465    3.6046446    26.824405 
   38020     122.8715   -1035.2051    10173.099    19300.909    3.6047484    26.824147 
   38030     124.0869   -1035.5812    10172.364    19300.379    3.6048474    26.823901 
   38040    125.28387   -1035.8627    10173.012    19299.874    3.6049417    26.823667 
   38050    126.35747   -1036.0722    10175.275    19299.395    3.6050312    26.823445 
   38060    127.21774   -1035.9832    10181.014    19298.941     3.605116    26.823235 
   38070     127.8049   -1035.5227    10190.778    19298.514    3.6051958    26.823037 
   38080    128.10877   -1034.9917     10202.25    19298.114    3.6052704    26.822852 
   38090    128.15729    -1033.992    10217.769    19297.744    3.6053396    26.822681 
   38100    127.99222   -1033.1377    10232.547    19297.404    3.6054031    26.822523 
   38110    127.65316    -1032.318    10246.977    19297.098    3.6054603    26.822381 
   38120    127.15745   -1031.4071    10261.729    19296.826     3.605511    26.822256 
   38130    126.50653   -1030.5218    10275.945    19296.591    3.6055549    26.822147 
   38140    125.69761   -1029.7448    10289.045    19296.395    3.6055916    26.822056 
   38150    124.74219   -1028.6837    10303.704    19296.239    3.6056208    26.821983 
   38160    123.67028   -1027.4602    10318.875    19296.125    3.6056422     26.82193 
   38170    122.52959   -1026.4132    10331.873    19296.054    3.6056553    26.821898 
   38180    121.37991   -1025.7472    10340.889    19296.029    3.6056599    26.821886 
   38190    120.28362   -1025.1511    10347.714    19296.051    3.6056559    26.821896 
   38200    119.29657   -1024.7947    10350.882     19296.12    3.6056429    26.821928 
   38210    118.46121   -1024.6572    10350.405    19296.237    3.6056211    26.821983 
   38220    117.79774   -1024.8611    10345.457    19296.401    3.6055905    26.822059 
   38230    117.30863   -1025.4837    10335.665    19296.612    3.6055511    26.822156 
   38240    116.98522   -1026.0022    10324.916    19296.867    3.6055034    26.822275 
   38250    116.81564   -1026.7557    10311.087    19297.166    3.6054475    26.822413 
   38260    116.79059   -1027.7245    10294.506    19297.507    3.6053839    26.822571 
   38270    116.90144   -1028.6005     10277.46    19297.886     3.605313    26.822747 
   38280    117.13897   -1029.7431    10257.581    19298.302    3.6052353    26.822939 
   38290    117.48868   -1030.9424    10236.521    19298.752    3.6051513    26.823148 
   38300    117.92128   -1032.2898    10213.928    19299.232    3.6050615     26.82337 
   38310    118.39505   -1033.8362    10189.864     19299.74    3.6049666    26.823606 
   38320     118.8494   -1035.0659    10168.417    19300.273    3.6048672    26.823852 
   38330    119.22189   -1036.2223    10148.422    19300.826    3.6047638    26.824109 
   38340     119.4551   -1037.1623    10131.334    19301.398     3.604657    26.824374 
   38350    119.51008   -1037.8908    10117.404    19301.987    3.6045471    26.824646 
   38360    119.37183   -1038.3959    10106.759    19302.589    3.6044346    26.824925 
   38370    119.05103   -1038.5288    10100.235    19303.204    3.6043198     26.82521 
   38380     118.5806   -1038.5879    10095.347    19303.831    3.6042028      26.8255 
   38390    118.00506   -1038.6163    10091.254    19304.468    3.6040837    26.825796 
   38400    117.37653   -1038.6169    10087.356    19305.116    3.6039628    26.826096 
   38410    116.74647   -1038.5906    10083.092    19305.774      3.60384    26.826401 
   38420    116.15804   -1038.7695     10076.37    19306.441    3.6037154     26.82671 
   38430    115.64599   -1039.2001    10066.529    19307.117    3.6035894    26.827022 
   38440    115.23348    -1039.811    10053.864    19307.799    3.6034621    26.827338 
   38450    114.93835   -1040.5456    10038.692    19308.486    3.6033338    26.827657 
   38460    114.77425   -1041.5602    10019.906    19309.176     3.603205    26.827976 
   38470    114.75586   -1042.5942    9999.3252    19309.867     3.603076    26.828296 
   38480    114.89706    -1044.001    9974.5375    19310.556    3.6029476    26.828615 
   38490     115.1986   -1045.7244    9946.0987    19311.239    3.6028202    26.828931 
   38500    115.63665   -1047.3564    9917.2433    19311.912    3.6026946    26.829243 
   38510    116.15166   -1049.1037    9887.1972    19312.572    3.6025715    26.829549 
   38520    116.65894   -1050.9912    9856.6917    19313.214    3.6024517    26.829846 
   38530    117.06412   -1052.7116    9828.8417    19313.835    3.6023359    26.830134 
   38540    117.28499   -1053.9242    9806.8534     19314.43    3.6022249    26.830409 
   38550    117.27368   -1054.9987    9788.7023    19314.997    3.6021191    26.830672 
   38560    117.01967   -1055.5682    9777.1109    19315.534     3.602019     26.83092 
   38570    116.55294   -1055.6389    9771.8373    19316.038    3.6019249    26.831154 
   38580    115.93461   -1055.5285    9770.1589     19316.51    3.6018369    26.831373 
   38590     115.2493   -1055.1683    9771.8348    19316.949     3.601755    26.831576 
   38600    114.59346   -1054.8254    9774.1957    19317.356    3.6016792    26.831764 
   38610    114.05641   -1054.6349     9775.512    19317.731    3.6016094    26.831938 
   38620    113.71242   -1054.5144    9775.7313    19318.074    3.6015455    26.832096 
   38630    113.60918   -1054.6158    9773.4534    19318.385    3.6014875     26.83224 
   38640    113.75725   -1054.9157    9768.8378    19318.664    3.6014354     26.83237 
   38650    114.13249   -1055.4394    9762.0574    19318.911    3.6013894    26.832484 
   38660    114.68269    -1055.878    9755.9062    19319.124    3.6013496    26.832583 
   38670     115.3425   -1056.2479    9751.0835    19319.304    3.6013161    26.832666 
   38680     116.0413   -1056.4864     9748.825    19319.449     3.601289    26.832733 
   38690    116.72403   -1056.5078    9750.3759     19319.56    3.6012684    26.832784 
   38700    117.35513   -1056.4084    9755.4353    19319.636    3.6012542     26.83282 
   38710    117.92524   -1055.8905    9766.1287    19319.679    3.6012462     26.83284 
   38720    118.44181   -1055.0138    9781.7831     19319.69    3.6012442    26.832845 
   38730    118.91841   -1054.0339    9800.1225    19319.671    3.6012477    26.832836 
   38740    119.36669   -1052.7763    9821.7565    19319.625    3.6012562    26.832815 
   38750    119.78533   -1051.6956    9842.9055    19319.556    3.6012692    26.832782 
   38760    120.16243   -1050.5688     9864.607    19319.465    3.6012861     26.83274 
   38770    120.47549   -1049.3213    9886.9927    19319.356    3.6013064     26.83269 
   38780    120.70417   -1048.1119    9908.7092    19319.232    3.6013295    26.832633 
   38790     120.8352   -1047.0427     9928.889    19319.096    3.6013548     26.83257 
   38800    120.86854   -1045.7023    9950.3019    19318.951    3.6013818    26.832503 
   38810    120.81655    -1044.544    9969.7276      19318.8      3.60141    26.832433 
   38820    120.69771   -1043.5056    9987.5446    19318.646    3.6014388    26.832361 
   38830    120.53472   -1042.4286    10004.814     19318.49    3.6014679    26.832289 
   38840    120.35164    -1041.475    10020.358    19318.335    3.6014967    26.832218 
   38850    120.17445   -1040.5403    10034.821    19318.184    3.6015248    26.832148 
   38860    120.03438   -1039.6777     10047.71    19318.039     3.601552     26.83208 
   38870    119.96377    -1038.749     10059.81      19317.9    3.6015778    26.832016 
   38880    119.99298   -1038.4029     10066.39     19317.77     3.601602    26.831956 
   38890    120.14766   -1038.0817    10071.161     19317.65    3.6016245      26.8319 
   38900    120.44073   -1038.1469     10071.53     19317.54     3.601645    26.831849 
   38910    120.86352   -1038.3184    10069.525     19317.44    3.6016636    26.831803 
   38920    121.38596   -1039.0011    10062.586     19317.35    3.6016804    26.831761 
   38930    121.95814   -1039.5664    10055.531    19317.269    3.6016955    26.831724 
   38940    122.51349   -1040.2228    10047.482    19317.196    3.6017091     26.83169 
   38950    122.97701   -1040.6757    10041.145     19317.13    3.6017215    26.831659 
   38960    123.27548   -1041.1715    10035.452    19317.069    3.6017327    26.831631 
   38970    123.34785   -1041.4799    10032.547    19317.014     3.601743    26.831606 
   38980    123.15998   -1041.5032    10033.444    19316.964    3.6017524    26.831583 
   38990    122.70925   -1041.1104    10039.091    19316.918    3.6017609    26.831561 
   39000    122.03172   -1040.6638    10046.685    19316.878    3.6017683    26.831543 
   39010    121.19308   -1039.7047     10058.83    19316.845    3.6017745    26.831528 
   39020    120.28235    -1038.764    10071.028     19316.82    3.6017791    26.831516 
   39030    119.39792   -1038.0415    10080.995    19316.805    3.6017819    26.831509 
   39040    118.63276   -1037.3878    10088.944    19316.802    3.6017826    26.831507 
   39050    118.05603   -1037.1135     10092.09     19316.81    3.6017811    26.831511 
   39060    117.70055   -1037.1128    10090.883    19316.831    3.6017771    26.831521 
   39070    117.55388    -1037.097    10087.413    19316.864    3.6017709    26.831537 
   39080    117.56562   -1037.5632    10078.614     19316.91    3.6017624    26.831558 
   39090    117.66439   -1038.2708    10066.754    19316.966     3.601752    26.831583 
   39100    117.77462   -1039.0766    10053.483    19317.031    3.6017399    26.831614 
   39110    117.82328   -1039.7957     10040.66    19317.103    3.6017264    26.831647 
   39120    117.75208   -1040.4872    10028.297    19317.181    3.6017119    26.831683 
   39130    117.52572   -1041.0697    10017.196    19317.262    3.6016968    26.831721 
   39140    117.13846   -1041.3012    10009.081    19317.346    3.6016812    26.831759 
   39150    116.61533   -1041.4885    10001.657     19317.43    3.6016654    26.831799 
   39160    116.00741   -1041.6911    9994.1987    19317.515    3.6016496    26.831838 
   39170     115.3837   -1042.1522     9984.634    19317.599    3.6016339    26.831877 
   39180    114.81794   -1042.6705    9974.0427    19317.681    3.6016187    26.831914 
   39190    114.36796   -1043.0675    9963.4919    19317.758    3.6016042     26.83195 
   39200    114.06481   -1043.7922    9949.9031    19317.831    3.6015907    26.831984 
   39210    113.90824   -1044.5918    9935.3183    19317.897    3.6015784    26.832015 
   39220    113.86971    -1045.549    9919.6005    19317.954    3.6015678    26.832041 
   39230    113.90786   -1046.5391    9904.1215        19318    3.6015592    26.832062 
   39240    113.98616   -1047.4252     9890.272    19318.032    3.6015532    26.832077 
   39250    114.08162   -1048.1189     9878.913     19318.05    3.6015498    26.832086 
   39260    114.19371   -1048.7137    9869.3995    19318.051    3.6015496    26.832086 
   39270    114.34516   -1049.0926     9862.351    19318.035    3.6015527    26.832079 
   39280     114.5723   -1049.5517     9855.423        19318    3.6015592    26.832062 
   39290    114.90513   -1049.9111    9849.6548    19317.945    3.6015693    26.832037 
   39300    115.35205   -1050.2302    9844.6223    19317.871    3.6015833    26.832002 
   39310     115.8944   -1050.4063    9841.2867    19317.775    3.6016011    26.831958 
   39320    116.49167   -1050.7237     9838.111    19317.658    3.6016229    26.831904 
   39330    117.09538   -1050.9655    9837.1251     19317.52    3.6016487     26.83184 
   39340    117.66017   -1050.9957    9839.7651     19317.36    3.6016785    26.831766 
   39350    118.15046   -1050.6462    9847.5998    19317.179    3.6017123    26.831682 
   39360    118.53628   -1050.0553    9859.9451    19316.978    3.6017498    26.831589 
   39370    118.79269   -1048.9544    9878.8397    19316.759    3.6017907    26.831488 
   39380    118.90044   -1047.8486    9900.8096    19316.523    3.6018345    26.831379 
   39390    118.84868   -1046.2262    9929.2764    19316.276    3.6018806    26.831264 
   39400    118.64434   -1044.3164    9962.2687     19316.02    3.6019284    26.831145 
   39410    118.31854    -1042.213    9998.4929    19315.759     3.601977    26.831025 
   39420    117.92311    -1039.967      10036.7      19315.5    3.6020254    26.830905 
   39430    117.52537   -1037.7983    10074.301    19315.246    3.6020727    26.830787 
   39440    117.19761   -1035.7864    10109.607    19315.004    3.6021179    26.830675 
   39450    117.01483   -1033.9889    10141.096    19314.777    3.6021602     26.83057 
   39460     117.0472    -1032.455    10167.381     19314.57    3.6021987    26.830474 
   39470    117.35327   -1031.3871    10186.165    19314.387    3.6022329     26.83039 
   39480    117.97074    -1030.931    10195.841     19314.23    3.6022622    26.830317 
   39490    118.90227     -1031.45    10193.709      19314.1    3.6022864    26.830257 
   39500    120.10839   -1032.2859    10184.706    19313.997    3.6023056    26.830209 
   39510    121.50108   -1033.5933    10168.595     19313.92    3.6023201    26.830173 
   39520    122.95725   -1034.9346    10149.661    19313.866    3.6023302    26.830148 
   39530    124.33461   -1036.5067    10127.944    19313.832    3.6023364    26.830132 
   39540    125.49937    -1037.928    10107.496    19313.816    3.6023393    26.830125 
   39550    126.34359   -1038.9749    10091.032    19313.815    3.6023395    26.830125 
   39560    126.80275   -1039.7527    10078.601    19313.827    3.6023373     26.83013 
   39570    126.86013   -1040.2092    10070.876    19313.849    3.6023332    26.830141 
   39580    126.54719   -1040.0119    10070.024    19313.882    3.6023271    26.830155 
   39590    125.93963   -1039.6474    10072.146    19313.924    3.6023193    26.830175 
   39600    125.13354   -1039.0858    10076.714    19313.975    3.6023097    26.830199 
   39610    124.22911   -1038.7163    10080.255    19314.037    3.6022981    26.830228 
   39620    123.31177   -1038.1675    10084.726     19314.11    3.6022845    26.830261 
   39630    122.44277   -1037.9168    10086.393    19314.195    3.6022687      26.8303 
   39640    121.65637   -1037.7156    10086.811    19314.291    3.6022508    26.830345 
   39650    120.96694   -1037.6331    10085.515    19314.399    3.6022307    26.830395 
   39660     120.3726   -1037.6938    10082.477    19314.518    3.6022085     26.83045 
   39670    119.86154   -1037.9113    10077.828    19314.648    3.6021843     26.83051 
   39680    119.41584   -1038.1471    10072.829    19314.788    3.6021581    26.830575 
   39690    119.01009   -1038.3772    10067.995    19314.938    3.6021302    26.830644 
   39700    118.61064    -1038.666    10063.253    19315.097    3.6021005    26.830718 
   39710    118.18532   -1038.8117    10060.387    19315.264    3.6020694    26.830795 
   39720    117.71129   -1038.7243    10060.328    19315.439    3.6020368    26.830876 
   39730    117.18147    -1038.435    10063.004    19315.621    3.6020027    26.830961 
   39740    116.60868   -1038.0528     10067.58    19315.812    3.6019671    26.831049 
   39750    116.03005   -1037.4519    10074.632    19316.012    3.6019299    26.831142 
   39760    115.50099   -1036.9266    10081.642    19316.221    3.6018909    26.831239 
   39770    115.08342   -1036.3142    10089.191    19316.441    3.6018499     26.83134 
   39780    114.83293   -1035.8622    10095.051    19316.672    3.6018067    26.831448 
   39790    114.78998   -1035.4531    10099.673    19316.916    3.6017613     26.83156 
   39800    114.97254   -1035.4794    10100.154    19317.172    3.6017135    26.831679 
   39810    115.37651   -1035.5179    10099.462    19317.442    3.6016632    26.831804 
   39820    115.98164   -1035.6652    10097.097    19317.724    3.6016106    26.831935 
   39830    116.75655   -1036.1282    10091.879    19318.019    3.6015556    26.832071 
   39840     117.6634   -1036.6422     10085.92    19318.325    3.6014985    26.832213 
   39850    118.66714   -1037.3201    10078.664    19318.643    3.6014394     26.83236 
   39860    119.73899   -1037.7243    10073.303     19318.97    3.6013784    26.832511 
   39870    120.85609   -1038.1436    10067.846    19319.306    3.6013157    26.832667 
   39880    122.00005   -1038.7058    10061.302    19319.651    3.6012514    26.832827 
   39890    123.16237   -1039.1882    10055.052    19320.003    3.6011858     26.83299 
   39900    124.33454   -1040.2293    10044.438    19320.361     3.601119    26.833156 
   39910    125.50413   -1041.1111    10034.285    19320.725    3.6010513    26.833324 
   39920    126.64397    -1042.026    10023.193    19321.092    3.6009828    26.833494 
   39930    127.70871   -1043.1382    10010.174    19321.461     3.600914    26.833665 
   39940    128.62656    -1043.859    9999.6851    19321.831    3.6008452    26.833836 
   39950    129.31432    -1044.591    9989.3873    19322.199    3.6007765    26.834006 
   39960    129.69465   -1044.9649    9982.2119    19322.565    3.6007083    26.834176 
   39970    129.70788   -1045.3662     9975.518    19322.928    3.6006407    26.834344 
   39980    129.30691   -1045.4451    9971.3541    19323.286     3.600574    26.834509 
   39990    128.44217   -1045.4399    9967.2839    19323.639    3.6005082    26.834673 
   40000    127.04853   -1045.3367    9962.3799    19323.987    3.6004434    26.834834 
Loop time of 4.70848 on 1 procs for 20000 steps with 500 atoms

Performance: 366.997 ns/day, 0.065 hours/ns, 4247.653 timesteps/s
98.6% CPU use with 1 MPI tasks x no OpenMP threads

MPI task timing breakdown:
Section |  min time  |  avg time  |  max time  |%varavg| %total
---------------------------------------------------------------
Pair    | 3.9889     | 3.9889     | 3.9889     |   0.0 | 84.72
Neigh   | 0.1122     | 0.1122     | 0.1122     |   0.0 |  2.38
Comm    | 0.14586    | 0.14586    | 0.14586    |   0.0 |  3.10
Output  | 0.016908   | 0.016908   | 0.016908   |   0.0 |  0.36
Modify  | 0.3915     | 0.3915     | 0.3915     |   0.0 |  8.31
Other   |            | 0.05314    |            |       |  1.13

Nlocal:    500 ave 500 max 500 min
Histogram: 1 0 0 0 0 0 0 0 0 0
Nghost:    1435 ave 1435 max 1435 min
Histogram: 1 0 0 0 0 0 0 0 0 0
Neighs:    13492 ave 13492 max 13492 min
Histogram: 1 0 0 0 0 0 0 0 0 0

Total # of neighbors = 13492
Ave neighs/atom = 26.984
Neighbor list builds = 164
Dangerous builds = 0
Total wall time: 0:00:11
