LAMMPS (7 Aug 2019)
Reading data file ...
  orthogonal box = (-1.4719 -1.4719 -1.4719) to (26.4719 26.4719 26.4719)
  1 by 1 by 1 MPI processor grid
  reading atoms ...
  500 atoms
  reading velocities ...
  500 velocities
  read_data CPU = 0.00601912 secs
Neighbor list info ...
  update every 1 steps, delay 10 steps, check yes
  max neighbors/atom: 2000, page size: 100000
  master list distance cutoff = 8
  ghost atom cutoff = 8
  binsize = 4, bins = 7 7 7
  1 neighbor lists, perpetual/occasional/extra = 1 0 0
  (1) pair lj/cut, perpetual
      attributes: half, newton on
      pair build: half/bin/atomonly/newton
      stencil: half/bin/3d/newton
      bin: standard
Setting up Verlet run ...
  Unit style    : real
  Current step  : 0
  Time step     : 1
Per MPI rank memory allocation (min/avg/max) = 3.998 | 3.998 | 3.998 Mbytes
Step Temp PotEng Press Volume Density Lx 
       0   0.94924373   -1315.7856    26.487323    21820.062    3.1885758    27.943791 
      10   0.94791637    -1315.783    26.005124    21820.403    3.1885259    27.943937 
      20   0.94689457   -1315.7796    24.519617    21821.414    3.1883782    27.944368 
      30   0.94622954   -1315.7754    22.090123    21823.057    3.1881382    27.945069 
      40   0.94598416   -1315.7703    18.813461    21825.269    3.1878151    27.946014 
      50   0.94622454   -1315.7642    14.819857    21827.966    3.1874212    27.947165 
      60   0.94700459   -1315.7571    10.267455    21831.045    3.1869716    27.948479 
      70   0.94834168   -1315.7487    5.3357198     21834.39    3.1864834    27.949906 
      80   0.95018385   -1315.7392   0.21803334    21837.873    3.1859751    27.951392 
      90   0.95237533   -1315.7285    -4.886169    21841.362    3.1854661    27.952881 
     100   0.95463582   -1315.7166    -9.779326    21844.727    3.1849756    27.954316 
     110   0.95657444   -1315.7036   -14.273367    21847.839    3.1845218    27.955644 
     120   0.95775106   -1315.6897   -18.196681    21850.583    3.1841219    27.956814 
     130    0.9577735   -1315.6748   -21.400233    21852.858    3.1837904    27.957784 
     140   0.95639237   -1315.6593    -23.76274    21854.581    3.1835394    27.958519 
     150   0.95355148   -1315.6432   -25.194881     21855.69    3.1833779    27.958992 
     160   0.94937552   -1315.6266   -25.642503    21856.149    3.1833111    27.959187 
     170   0.94411167   -1315.6096   -25.088691    21855.945    3.1833408    27.959101 
     180   0.93806047   -1315.5922   -23.554543    21855.093    3.1834648    27.958737 
     190   0.93152386   -1315.5743   -21.098558    21853.633    3.1836775    27.958115 
     200   0.92477728   -1315.5561   -17.814618    21851.629    3.1839695     27.95726 
     210   0.91805841   -1315.5373   -13.828648    21849.165    3.1843286    27.956209 
     220   0.91156279    -1315.518   -9.2940424    21846.344    3.1847397    27.955006 
     230   0.90543962    -1315.498   -4.3860371    21843.284    3.1851859    27.953701 
     240   0.89978586   -1315.4775   0.70483252    21840.112    3.1856485    27.952347 
     250   0.89463973   -1315.4563    5.7799579    21836.958    3.1861086    27.951002 
     260   0.88997752   -1315.4345    10.640336    21833.955    3.1865469     27.94972 
     270    0.8857183   -1315.4123    15.094426    21831.226    3.1869452    27.948556 
     280   0.88174015   -1315.3896    18.965869    21828.887    3.1872867    27.947558 
     290   0.87790671   -1315.3666     22.10075    21827.036    3.1875569    27.946768 
     300   0.87409712   -1315.3435     24.37404    21825.756    3.1877439    27.946222 
     310   0.87022957   -1315.3202    25.694889    21825.104    3.1878392    27.945943 
     320   0.86627107   -1315.2969    26.010482    21825.113    3.1878377    27.945947 
     330   0.86223257   -1315.2736    25.308267    21825.793    3.1877384    27.946238 
     340   0.85815435   -1315.2502    23.616438    21827.125    3.1875439    27.946806 
     350    0.8540884   -1315.2268    21.002683    21829.066    3.1872605    27.947634 
     360   0.85008334   -1315.2031    17.571266    21831.548    3.1868981    27.948694 
     370   0.84617463   -1315.1792    13.458608    21834.484    3.1864697    27.949946 
     380   0.84238055   -1315.1549    8.8275829    21837.767    3.1859906    27.951347 
     390   0.83870323   -1315.1301     3.860817    21841.278    3.1854784    27.952845 
     400   0.83513282   -1315.1048   -1.2467126     21844.89    3.1849518    27.954386 
     410   0.83165305    -1315.079   -6.2954418     21848.47    3.1844299    27.955913 
     420   0.82824619   -1315.0527   -11.089029    21851.888    3.1839318     27.95737 
     430    0.8248965    -1315.026   -15.441904     21855.02    3.1834754    27.958706 
     440   0.82159173   -1314.9989   -19.186272    21857.754    3.1830773    27.959872 
     450   0.81832302   -1314.9716   -22.178348    21859.992    3.1827513    27.960826 
     460     0.815084   -1314.9441   -24.303611    21861.658    3.1825089    27.961536 
     470    0.8118697   -1314.9166   -25.480936    21862.695    3.1823578    27.961979 
     480   0.80867564    -1314.889   -25.665486    21863.074    3.1823027     27.96214 
     490   0.80549746   -1314.8613     -24.8503     21862.79    3.1823441    27.962019 
     500   0.80233089   -1314.8336   -23.066532    21861.864    3.1824789    27.961624 
     510   0.79917198   -1314.8058   -20.382339    21860.341    3.1827006    27.960975 
     520   0.79601735   -1314.7778   -16.900451    21858.292    3.1829989    27.960102 
     530   0.79286452   -1314.7495   -12.754471    21855.807    3.1833608    27.959042 
     540   0.78971206   -1314.7208   -8.1040145    21852.993    3.1837707    27.957842 
     550    0.7865597   -1314.6916   -3.1288142    21849.971    3.1842111    27.956553 
     560   0.78340835    -1314.662    1.9780314    21846.868    3.1846633     27.95523 
     570   0.78026009   -1314.6319    7.0174348    21843.817    3.1851081    27.953928 
     580    0.7771181   -1314.6014    11.792067    21840.948    3.1855265    27.952704 
     590   0.77398662   -1314.5705    16.114172    21838.384    3.1859006     27.95161 
     600   0.77087085   -1314.5393    19.813127    21836.236     3.186214    27.950694 
     610   0.76777684    -1314.508    22.742416    21834.599    3.1864529    27.949995 
     620   0.76471142   -1314.4766    24.785697    21833.549    3.1866062    27.949547 
     630   0.76168202   -1314.4453    25.861663    21833.137    3.1866662    27.949372 
     640   0.75869661    -1314.414    25.927474    21833.393    3.1866288    27.949481 
     650   0.75576354   -1314.3829    24.980559    21834.317     3.186494    27.949875 
     660   0.75289146   -1314.3518     23.05872    21835.886    3.1862651    27.950544 
     670   0.75008923   -1314.3208    20.238522    21838.049    3.1859495    27.951467 
     680   0.74736583   -1314.2897    16.632047    21840.734    3.1855577    27.952613 
     690    0.7447304   -1314.2585    12.382188    21843.849    3.1851035    27.953942 
     700   0.74219217    -1314.227     7.656716    21847.284    3.1846027    27.955407 
     710   0.73976052   -1314.1953    2.6413957    21850.917    3.1840733    27.956956 
     720   0.73744507   -1314.1633   -2.4675135    21854.619     3.183534    27.958535 
     730   0.73525574    -1314.131   -7.4710523    21858.257     3.183004    27.960086 
     740   0.73320292   -1314.0985   -12.175322    21861.703    3.1825023    27.961556 
     750   0.73129759   -1314.0658   -16.398908    21864.835    3.1820465    27.962891 
     760    0.7295515   -1314.0332   -19.979699    21867.543    3.1816524    27.964045 
     770   0.72797735   -1314.0006   -22.780881    21869.734    3.1813336    27.964979 
     780   0.72658898   -1313.9683   -24.695905    21871.337    3.1811005    27.965662 
     790   0.72540152   -1313.9362   -25.652317    21872.301    3.1809603    27.966073 
     800   0.72443154   -1313.9046   -25.614325    21872.601    3.1809167    27.966201 
     810   0.72369721   -1313.8734   -24.584052    21872.238    3.1809694    27.966047 
     820   0.72321831   -1313.8426   -22.601454     21871.24    3.1811146    27.965621 
     830   0.72301631   -1313.8121   -19.742888    21869.657    3.1813448    27.964947 
     840   0.72311425    -1313.782   -16.118377    21867.564    3.1816493    27.964054 
     850   0.72353668   -1313.7521   -11.867638    21865.055    3.1820144    27.962985 
     860   0.72431836    -1313.698   -7.0058865    21862.241     3.182424    27.961785 
     870   0.72547667   -1313.6685   -2.0219382    21859.247    3.1828599    27.960508 
     880   0.72703715   -1313.6393    3.0412405    21856.201    3.1833035     27.95921 
     890    0.7290499   -1313.5858    8.1355534    21853.235    3.1837355    27.957945 
     900   0.73152966   -1313.5571    12.760062     21850.48     3.184137     27.95677 
     910   0.73448921   -1313.5289    16.883326    21848.054    3.1844904    27.955736 
     920   0.73795314   -1313.4767     20.49343    21846.066    3.1847804    27.954887 
     930   0.74195787   -1313.4498    23.147004    21844.604    3.1849934    27.954264 
     940   0.74650192   -1313.4236    24.887108     21843.74    3.1851194    27.953895 
     950   0.75159952   -1313.3983    25.644269    21843.519    3.1851516    27.953801 
     960    0.7572607   -1313.3739    25.388175    21843.959    3.1850874    27.953989 
     970   0.76349088   -1313.3259    24.280307    21845.055    3.1849277    27.954456 
     980   0.77029052   -1313.3033    22.064832    21846.775    3.1846769     27.95519 
     990   0.77765114   -1313.2816    18.978641    21849.066    3.1843431    27.956167 
    1000    0.7855621   -1313.2605     15.14428    21851.846    3.1839379    27.957353 
    1010   0.79400741     -1313.24     10.71355    21855.018    3.1834758    27.958705 
    1020    0.8029659     -1313.22    5.8612263    21858.466    3.1829735    27.960176 
    1030   0.81242054   -1313.1759    0.9278227    21862.068    3.1824492    27.961711 
    1040   0.82233509   -1313.1568   -4.1945203    21865.694    3.1819215    27.963257 
    1050   0.83266973    -1313.138   -9.1554715    21869.211    3.1814097    27.964756 
    1060    0.8433866   -1313.1197   -13.762838    21872.492    3.1809324    27.966155 
    1070   0.85445025   -1313.1018   -17.839583    21875.418     3.180507    27.967402 
    1080   0.86582917   -1313.0846   -21.230373    21877.884    3.1801486    27.968452 
    1090   0.87746412   -1313.0679    -23.80373      21879.8    3.1798701    27.969269 
    1100   0.88931425   -1313.0275   -25.310915      21881.1    3.1796811    27.969823 
    1110    0.9013363   -1312.9878   -25.844396    21881.744    3.1795875    27.970097 
    1120   0.91349829   -1312.9736   -25.534063    21881.717    3.1795914    27.970086 
    1130   0.92572989   -1312.9602   -24.243551    21881.029    3.1796914    27.969793 
    1140   0.93798798   -1312.9476   -22.022567    21879.714    3.1798825    27.969232 
    1150   0.95023952   -1312.9602     -19.1073    21877.829    3.1801566    27.968429 
    1160   0.96245419   -1312.9491   -15.309365     21875.45    3.1805023    27.967415 
    1170    0.9745852   -1312.9631   -11.074153    21872.675    3.1809059    27.966233 
    1180   0.98659089   -1312.8795   -5.8120538    21869.614    3.1813511    27.964928 
    1190   0.99846426   -1312.8948   -0.9285716    21866.398     3.181819    27.963557 
    1200    1.0101208   -1312.8861    4.1330235    21863.159    3.1822904    27.962176 
    1210    1.0215242   -1312.8536    9.1733088    21860.029     3.182746    27.960842 
    1220    1.0326148    -1312.871    13.541546    21857.136    3.1831672    27.959609 
    1230    1.0433361   -1312.8649    17.515224    21854.596    3.1835372    27.958525 
    1240    1.0536165   -1312.8598    20.787627    21852.509    3.1838413    27.957635 
    1250    1.0633817   -1312.8561     23.22784    21850.959    3.1840671    27.956974 
    1260    1.0725477   -1312.8539    24.737675     21850.01    3.1842055    27.956569 
    1270    1.0810196   -1312.8532    25.255809    21849.699    3.1842508    27.956437 
    1280    1.0886931   -1312.8542    24.760387     21850.04     3.184201    27.956582 
    1290    1.0954552   -1312.8569    23.269966    21851.021    3.1840581    27.957001 
    1300    1.1011893   -1312.8613    20.842751    21852.602    3.1838277    27.957675 
    1310    1.1057956   -1312.8428    17.723672    21854.724    3.1835187     27.95858 
    1320    1.1091712   -1312.8751    13.584854    21857.302    3.1831432    27.959679 
    1330     1.111231   -1312.8844     9.041144    21860.231    3.1827166    27.960928 
    1340    1.1119341   -1312.8952    4.1200094    21863.394    3.1822561    27.962277 
    1350    1.1113401   -1312.9321   -1.1345743    21866.663    3.1817805     27.96367 
    1360    1.1095103   -1312.9458   -6.2175229    21869.902    3.1813092    27.965051 
    1370    1.1066325   -1312.9611   -11.082243    21872.981    3.1808614    27.966363 
    1380      1.10297   -1313.0271     -15.8383     21875.77    3.1804558    27.967552 
    1390    1.0987899   -1313.0456   -19.701029     21878.15    3.1801098    27.968566 
    1400    1.0943957   -1313.0659   -22.822941    21880.021     3.179838    27.969363 
    1410    1.0900952   -1313.0633   -24.933167      21881.3     3.179652    27.969908 
    1420    1.0861522   -1313.1116   -26.401702    21881.934    3.1795599    27.970178 
    1430    1.0827878   -1313.1373   -26.720775    21881.886    3.1795669    27.970158 
    1440    1.0801369   -1313.1647   -26.025956    21881.146    3.1796744    27.969843 
    1450    1.0782895   -1313.1938   -24.342529    21879.733    3.1798798     27.96924 
    1460    1.0772835   -1313.2244   -21.733513     21877.69    3.1801768     27.96837 
    1470    1.0771137   -1313.2564   -18.297405    21875.085    3.1805555     27.96726 
    1480     1.077742   -1313.3143   -14.315764    21872.007    3.1810031    27.965948 
    1490    1.0791119   -1313.3486   -9.6403417    21868.561    3.1815043    27.964479 
    1500     1.081136   -1313.3839   -4.5993028    21864.867    3.1820418    27.962904 
    1510    1.0837226   -1313.4444   0.46231101    21861.055    3.1825966    27.961279 
    1520    1.0867747   -1313.4811    5.6495091    21857.257    3.1831496     27.95966 
    1530    1.0901816   -1313.5183    10.610784    21853.607    3.1836814    27.958103 
    1540    1.0938391   -1313.5561    15.152515    21850.231    3.1841732    27.956664 
    1550    1.0976598    -1313.619    18.946272    21847.248     3.184608    27.955391 
    1560    1.1015661   -1313.6579    22.142882    21844.755    3.1849714    27.954328 
    1570     1.105471   -1313.6975    24.465292    21842.836    3.1852513    27.953509 
    1580    1.1092713   -1313.7375    25.824162    21841.548    3.1854391     27.95296 
    1590    1.1129003   -1313.7781    26.166438    21840.927    3.1855296    27.952695 
    1600    1.1163023   -1313.8191    25.479522    21840.981    3.1855217    27.952718 
    1610    1.1194324   -1313.8605    23.791802    21841.693    3.1854179    27.953022 
    1620    1.1222564    -1313.902    21.171437    21843.019    3.1852246    27.953587 
    1630    1.1247497   -1313.9436    17.723471     21844.89    3.1849517    27.954386 
    1640    1.1268969   -1313.9851    13.585409     21847.22    3.1846121     27.95538 
    1650    1.1286904   -1314.0263    8.9214999      21849.9    3.1842214    27.956523 
    1660    1.1301296   -1314.0672    3.9159777    21852.811    3.1837973    27.957764 
    1670    1.1312202   -1314.1076   -1.2343971    21855.823    3.1833585    27.959048 
    1680    1.1319727   -1314.1475    -6.328178    21858.803    3.1829245    27.960319 
    1690    1.1324021   -1314.1869   -11.167115     21861.62    3.1825144     27.96152 
    1700    1.1325266   -1314.2259   -15.563772    21864.149    3.1821463    27.962598 
    1710    1.1323672   -1314.2645   -19.348596    21866.275    3.1818369    27.963505 
    1720    1.1319465   -1314.3028   -22.376199    21867.901    3.1816003    27.964198 
    1730    1.1312883   -1314.3409   -24.530664    21868.949    3.1814479    27.964644 
    1740     1.130417   -1314.3788   -25.729711    21869.362    3.1813878     27.96482 
    1750    1.1293567   -1314.4167   -25.927626     21869.11    3.1814245    27.964713 
    1760    1.1281307   -1314.4545   -25.116874    21868.187    3.1815587     27.96432 
    1770    1.1267614   -1314.4922   -23.328359    21866.615    3.1817873     27.96365 
    1780    1.1252692   -1314.5297   -20.630327    21864.441    3.1821037    27.962723 
    1790    1.1236727    -1314.567   -17.125933    21861.734    3.1824977    27.961569 
    1800    1.1219883   -1314.6039   -12.949539    21858.586    3.1829561    27.960227 
    1810    1.1202297   -1314.6404    -8.261824    21855.104    3.1834632    27.958742 
    1820    1.1184189   -1314.7009   -3.3946624     21851.41    3.1840014    27.957167 
    1830    1.1165693   -1314.7363    1.7642057     21847.63    3.1845523    27.955554 
    1840    1.1146736   -1314.7712    6.8634789    21843.897    3.1850966    27.953962 
    1850    1.1127343   -1314.8055    11.703599    21840.342    3.1856149    27.952446 
    1860    1.1107512   -1314.8394    16.094355    21837.091    3.1860893    27.951059 
    1870    1.1087219   -1314.8728    19.862544    21834.255     3.186503    27.949849 
    1880     1.106642   -1314.9059    22.859061    21831.933    3.1868419    27.948858 
    1890    1.1045048   -1314.9388    24.965077    21830.201    3.1870948    27.948119 
    1900    1.1023024   -1314.9715    26.097022    21829.112    3.1872538    27.947654 
    1910    1.1000254   -1315.0041    26.210116    21828.697    3.1873144    27.947477 
    1920    1.0976634   -1315.0365    25.300264    21828.957    3.1872765    27.947588 
    1930    1.0952054   -1315.0687    23.404235    21829.869    3.1871433    27.947977 
    1940      1.09264   -1315.1005    20.598098    21831.384    3.1869221    27.948623 
    1950    1.0899559   -1315.1319    16.994001     21833.43    3.1866235    27.949497 
    1960    1.0871417   -1315.1627    12.735465    21835.914    3.1862609    27.950557 
    1970    1.0841867   -1315.1929    7.9914135    21838.727    3.1858505    27.951757 
    1980    1.0810806   -1315.2222    2.9492487    21841.746    3.1854101    27.953045 
    1990    1.0778139   -1315.2506   -2.1927307    21844.842    3.1849588    27.954365 
    2000    1.0743779   -1315.2781   -7.2332095     21847.88    3.1845158    27.955661 
    2010    1.0707649   -1315.3047   -11.975719    21850.733    3.1841001    27.956878 
    2020     1.066968   -1315.3304   -16.236171    21853.276    3.1837296    27.957962 
    2030    1.0629813   -1315.3553   -19.849791    21855.399    3.1834202    27.958868 
    2040       1.0588   -1315.3793   -22.677217    21857.011    3.1831856    27.959555 
    2050    1.0544204   -1315.4026   -24.609587    21858.036    3.1830363    27.959992 
    2060    1.0498396   -1315.4253   -25.572455    21858.425    3.1829795    27.960158 
    2070    1.0450563   -1315.4471   -25.528454    21858.154     3.183019    27.960043 
    2080    1.0400703   -1315.4683   -24.478621    21857.224    3.1831545    27.959646 
    2090     1.034883   -1315.4885   -22.462369    21855.662     3.183382     27.95898 
    2100    1.0294976   -1315.5079   -19.556096     21853.52     3.183694    27.958066 
    2110    1.0239192   -1315.5261   -15.870469    21850.874    3.1840796    27.956938 
    2120    1.0181557   -1315.5431   -11.546443    21847.819    3.1845248    27.955635 
    2130    1.0122174   -1315.5588   -6.7501243    21844.467    3.1850134    27.954205 
    2140    1.0061181   -1315.5731   -1.6666239    21840.943    3.1855273    27.952702 
    2150   0.99987537   -1315.5858    3.5069176    21837.377    3.1860475    27.951181 
    2160   0.99351087    -1315.597     8.568893    21833.903    3.1865545    27.949698 
    2170     0.987051   -1315.6068    13.321108    21830.651    3.1870292    27.948311 
    2180    0.9805273   -1315.6151    17.576668    21827.743    3.1874537     27.94707 
    2190   0.97397692   -1315.6221    21.167536     21825.29     3.187812    27.946023 
    2200   0.96744291   -1315.6279    23.951437    21823.382    3.1880906    27.945209 
    2210   0.96097462   -1315.6325    25.817774    21822.093     3.188279    27.944658 
    2220   0.95462782   -1315.6361    26.692276    21821.468    3.1883703    27.944391 
    2230   0.94846478   -1315.6386     26.54014    21821.531    3.1883611    27.944418 
    2240   0.94255418   -1315.6402    25.367515    21822.278     3.188252    27.944737 
    2250   0.93697069   -1315.6407    23.221238    21823.678    3.1880475    27.945335 
    2260   0.93179426   -1315.6402    20.186846    21825.676    3.1877556    27.946187 
    2270   0.92710882   -1315.6385    16.384966    21828.194    3.1873879    27.947262 
    2280   0.92300037   -1315.6355    11.966259    21831.134    3.1869586    27.948517 
    2290   0.91955404   -1315.6313    7.1051687    21834.383    3.1864844    27.949903 
    2300   0.91685003   -1315.6258    1.9927889    21837.815    3.1859836    27.951367 
    2310   0.91495811    -1315.619   -3.1708455    21841.298    3.1854755    27.952854 
    2320    0.9139308   -1315.6108   -8.1846886      21844.7    3.1849794    27.954305 
    2330   0.91379561   -1315.6014   -12.854517    21847.891    3.1845143    27.955666 
    2340   0.91454719    -1315.591    -17.00036     21850.75    3.1840976    27.956885 
    2350   0.91614103   -1315.5794   -20.463264    21853.169    3.1837451    27.957917 
    2360   0.91849057    -1315.567   -23.111154    21855.061    3.1834695    27.958724 
    2370   0.92146927   -1315.5538   -24.843624    21856.355     3.183281    27.959275 
    2380   0.92491842   -1315.5399   -25.595516    21857.008     3.183186    27.959554 
    2390   0.92865949   -1315.5253   -25.339195    21856.999    3.1831872     27.95955 
    2400   0.93250875     -1315.51    -24.08548    21856.336    3.1832838    27.959267 
    2410   0.93629107    -1315.494   -21.883215    21855.051    3.1834709    27.958719 
    2420   0.93985061   -1315.4772   -18.817499    21853.202    3.1837404    27.957931 
    2430   0.94305728   -1315.4595   -15.006614    21850.867    3.1840805    27.956935 
    2440   0.94580924   -1315.4409   -10.597743    21848.146    3.1844771    27.955774 
    2450   0.94803233   -1315.4213   -5.7615762    21845.152    3.1849135    27.954498 
    2460   0.94967777   -1315.4006  -0.68596075    21842.011    3.1853715    27.953158 
    2470   0.95071902   -1315.3788    4.4312015    21838.854    3.1858321    27.951811 
    2480   0.95114843    -1315.356    9.3895763    21835.812    3.1862759    27.950513 
    2490   0.95097406   -1315.3323    13.994251    21833.013    3.1866843    27.949319 
    2500   0.95021675   -1315.3077    18.063512    21830.576      3.18704    27.948279 
    2510    0.9489075   -1315.2823    21.436209    21828.606    3.1873277    27.947438 
    2520   0.94708508   -1315.2564    23.978382    21827.189    3.1875347    27.946833 
    2530    0.9447938   -1315.2299    25.588828    21826.389    3.1876514    27.946492 
    2540   0.94208152    -1315.203    26.203352     21826.25    3.1876718    27.946432 
    2550   0.93899777   -1315.1758    25.797466    21826.785    3.1875935    27.946661 
    2560   0.93559205   -1315.1482     24.38742    21827.986    3.1874183    27.947173 
    2570    0.9319123   -1315.1203    22.029495    21829.814    3.1871513    27.947954 
    2580   0.92800362   -1315.0919    18.817606     21832.21    3.1868015    27.948976 
    2590   0.92390722    -1315.063    14.879333    21835.092     3.186381    27.950206 
    2600   0.91965964   -1315.0335    10.370582    21838.356    3.1859046    27.951599 
    2610   0.91529225   -1315.0034      5.46914    21841.889    3.1853894    27.953105 
    2620   0.91083107   -1314.9727   0.36742959    21845.562    3.1848538    27.954672 
    2630   0.90629686   -1314.9413   -4.7352062    21849.245     3.184317    27.956243 
    2640   0.90170538   -1314.9092   -9.6403577    21852.805    3.1837981    27.957762 
    2650   0.89706792   -1314.8766   -14.158222    21856.117    3.1833158    27.959174 
    2660   0.89239197   -1314.8436   -18.114808    21859.062    3.1828868     27.96043 
    2670   0.88768184   -1314.8102   -21.358423     21861.54    3.1825261    27.961486 
    2680   0.88293954   -1314.7765   -23.765232    21863.465    3.1822459    27.962307 
    2690    0.8781654   -1314.7428   -25.243732    21864.775    3.1820551    27.962866 
    2700   0.87335883   -1314.7089   -25.738012    21865.434    3.1819593    27.963146 
    2710   0.86851895    -1314.675   -25.229727    21865.426    3.1819604    27.963143 
    2720   0.86364517   -1314.6411   -23.738734    21864.767    3.1820564    27.962862 
    2730   0.85873767   -1314.6071   -21.322375    21863.494    3.1822416    27.962319 
    2740   0.85379788   -1314.5729   -18.073435    21861.671     3.182507    27.961542 
    2750   0.84882885   -1314.5385   -14.116804    21859.381    3.1828403    27.960566 
    2760    0.8438356   -1314.5038   -9.6049506    21856.728    3.1832267    27.959434 
    2770    0.8388254   -1314.4688   -4.7123189    21853.827    3.1836492    27.958198 
    2780   0.83380802   -1314.4333   0.37118882    21850.807    3.1840893    27.956909 
    2790   0.82879589   -1314.3974    5.4474254    21847.797     3.184528    27.955626 
    2800   0.82380426   -1314.3612    10.317663    21844.928    3.1849461    27.954402 
    2810   0.81885123   -1314.3248    14.790416    21842.328    3.1853254    27.953293 
    2820   0.81395778   -1314.2881    18.689109    21840.109    3.1856489    27.952346 
    2830   0.80914768   -1314.2515    21.859255    21838.374     3.185902    27.951606 
    2840   0.80444736    -1314.215    24.174821    21837.203    3.1860729    27.951106 
    2850    0.7998857   -1314.1788    25.543478    21836.656    3.1861527    27.950873 
    2860    0.7954938   -1314.1429    25.910479    21836.768    3.1861364    27.950921 
    2870   0.79130461   -1314.1074    25.260962    21837.548    3.1860226    27.951253 
    2880   0.78735264   -1314.0723    23.620572    21838.979    3.1858138    27.951864 
    2890   0.78367355   -1314.0376    21.054359    21841.019    3.1855162    27.952735 
    2900   0.78030371   -1314.0033     17.66402    21843.603    3.1851395    27.953837 
    2910   0.77727988   -1313.9694    13.583615    21846.641    3.1846964    27.955133 
    2920   0.77463875   -1313.9357     8.973982    21850.031    3.1842024    27.956578 
    2930   0.77243823   -1313.8532    4.3168908    21853.653    3.1836746    27.958123 
    2940   0.77069792   -1313.8201  -0.80616804    21857.384    3.1831311    27.959714 
    2950   0.76943888   -1313.7873    -5.895862    21861.095    3.1825909    27.961296 
    2960   0.76870206   -1313.7304   -10.604283    21864.653     3.182073    27.962813 
    2970   0.76852338   -1313.6985   -15.050897    21867.936    3.1815953    27.964213 
    2980    0.7689155   -1313.6672   -18.915024    21870.829    3.1811743    27.965446 
    2990   0.76992632   -1313.5875   -21.747567    21873.233    3.1808247    27.966471 
    3000   0.77161039   -1313.5579   -24.041818    21875.072    3.1805573    27.967254 
    3010   0.77394892   -1313.5539   -25.560381    21876.287    3.1803806    27.967772 
    3020   0.77695208   -1313.5264   -25.946453     21876.84    3.1803002    27.968008 
    3030   0.78063529   -1313.5001    -25.33723    21876.722    3.1803174    27.967957 
    3040   0.78501183   -1313.4748   -23.756621    21875.948    3.1804299    27.967628 
    3050   0.79009193   -1313.4507   -21.265522     21874.56    3.1806317    27.967036 
    3060   0.79588261   -1313.4276    -17.95964    21872.622    3.1809135     27.96621 
    3070   0.80238743   -1313.4055   -13.966058    21870.221    3.1812628    27.965187 
    3080    0.8096063   -1313.3843   -9.4386173    21867.459    3.1816646     27.96401 
    3090    0.8175353   -1313.3639    -4.552267    21864.455    3.1821018    27.962729 
    3100   0.82616643   -1313.3443   0.50347631    21861.334    3.1825561    27.961398 
    3110   0.83548744   -1313.3255     5.531729    21858.227    3.1830084    27.960074 
    3120   0.84548162   -1313.3075    10.335856    21855.265    3.1834398    27.958811 
    3130   0.85612756   -1313.2904    14.727209    21852.571    3.1838323    27.957662 
    3140    0.8674161   -1313.2497    18.681265     21850.26     3.184169    27.956676 
    3150   0.87929623   -1313.2346    21.741824    21848.432    3.1844354    27.955897 
    3160   0.89172994   -1313.2208    23.938718    21847.166    3.1846199    27.955357 
    3170   0.90467481   -1313.2082    25.184524    21846.519    3.1847142    27.955081 
    3180   0.91808279   -1313.1969    25.429515    21846.522    3.1847138    27.955082 
    3190   0.93189982   -1313.1869    24.663742    21847.181    3.1846178    27.955363 
    3200   0.94610896   -1313.1783    22.918078    21848.476     3.184429    27.955915 
    3210   0.96061626   -1313.1464    20.412448    21850.362    3.1841541     27.95672 
    3220   0.97535123   -1313.1403    16.945669    21852.774    3.1838027    27.957748 
    3230   0.99020412   -1313.1354     12.80326    21855.622    3.1833877    27.958963 
    3240    1.0050815   -1313.1314    8.1479651    21858.802    3.1829247    27.960319 
    3250    1.0199015    -1313.104    3.3121063    21862.192    3.1824312    27.961764 
    3260    1.0345781   -1313.0776   -1.6686212    21865.668    3.1819252    27.963246 
    3270    1.0489279   -1313.0769   -6.7500285    21869.102    3.1814256     27.96471 
    3280    1.0628078   -1313.0772   -11.585068     21872.36    3.1809517    27.966098 
    3290    1.0760624   -1313.0786   -15.988503    21875.319    3.1805215    27.967359 
    3300    1.0885224   -1313.0815   -19.792623    21877.863    3.1801516    27.968444 
    3310    1.1000126   -1313.0612    -22.70298    21879.895    3.1798562    27.969309 
    3320    1.1103363   -1313.0671   -24.911034    21881.338    3.1796465    27.969925 
    3330    1.1192911   -1313.0748   -26.184857    21882.137    3.1795304    27.970265 
    3340    1.1267129   -1313.0844   -26.479205    21882.259    3.1795127    27.970317 
    3350    1.1323762   -1313.0959   -25.782627    21881.695    3.1795946    27.970077 
    3360    1.1361552   -1313.1339   -24.274137    21880.464    3.1797735    27.969552 
    3370    1.1380155   -1313.1739   -21.863058    21878.606    3.1800435     27.96876 
    3380    1.1379928   -1313.1911    -18.49101    21876.185    3.1803956    27.967728 
    3390    1.1362467   -1313.2102   -14.436481    21873.285    3.1808171    27.966493 
    3400    1.1330937   -1313.2063   -9.7035143    21870.014    3.1812929    27.965099 
    3410    1.1289669   -1313.2287   -4.7736405    21866.492    3.1818053    27.963597 
    3420    1.1243316   -1313.2527   0.31288046    21862.848    3.1823356    27.962044 
    3430    1.1196607   -1313.2782    5.3599501    21859.215    3.1828646    27.960495 
    3440    1.1153601   -1313.3053    10.172183    21855.721    3.1833734    27.959005 
    3450    1.1117345   -1313.3339    14.562532    21852.492    3.1838438    27.957628 
    3460    1.1090336   -1313.4133     18.06014    21849.638    3.1842596    27.956411 
    3470    1.1073273   -1313.4699    20.980194    21847.251    3.1846075    27.955393 
    3480    1.1066101   -1313.5035    23.207466    21845.406    3.1848764    27.954606 
    3490    1.1068494   -1313.6125    24.050959    21844.161     3.185058    27.954075 
    3500    1.1079825   -1313.6494    24.381265     21843.54    3.1851486     27.95381 
    3510    1.1098368   -1313.6877    23.738487    21843.548    3.1851474    27.953813 
    3520     1.112264   -1313.7273    22.150734    21844.169    3.1850569    27.954078 
    3530     1.115108   -1313.7924    19.532473    21845.361    3.1848831    27.954587 
    3540    1.1182489   -1313.8337    16.290134    21847.059    3.1846355    27.955311 
    3550    1.1214896   -1313.8756    12.406487    21849.177    3.1843268    27.956214 
    3560    1.1246785   -1313.9176    8.0377693    21851.615    3.1839715    27.957254 
    3570    1.1276864   -1313.9842    3.2077679     21854.26    3.1835861    27.958382 
    3580    1.1303974    -1314.026   -1.5905122    21856.989    3.1831887    27.959546 
    3590    1.1326794   -1314.0674   -6.3170472    21859.676    3.1827974    27.960691 
    3600    1.1344367   -1314.1082   -10.785535      21862.2      3.18243    27.961767 
    3610    1.1355904   -1314.1482   -14.820555    21864.444    3.1821033    27.962724 
    3620    1.1360779   -1314.1875   -18.264224    21866.306    3.1818324    27.963518 
    3630    1.1358523   -1314.2259   -20.982087    21867.694    3.1816304     27.96411 
    3640    1.1348813   -1314.2635   -22.868065     21868.54    3.1815073     27.96447 
    3650    1.1331465   -1314.3001   -23.848306    21868.795    3.1814702    27.964579 
    3660    1.1306421   -1314.3356   -23.883848    21868.433    3.1815229    27.964425 
    3670    1.1273738   -1314.3701   -22.972017    21867.454    3.1816653    27.964007 
    3680    1.1233583   -1314.4033   -21.146524    21865.882    3.1818941    27.963337 
    3690    1.1186219   -1314.4352    -18.47627    21863.763    3.1822024    27.962434 
    3700    1.1131998   -1314.4656   -15.062875    21861.169    3.1825801    27.961328 
    3710    1.1071354   -1314.4945   -11.037002    21858.186    3.1830143    27.960056 
    3720    1.1004794   -1314.5216   -6.5535704     21854.92      3.18349    27.958664 
    3730    1.0932893   -1314.5471   -1.7859997    21851.487    3.1839902    27.957199 
    3740    1.0856284   -1314.5707    3.0803407    21848.009    3.1844971    27.955716 
    3750    1.0775656   -1314.5927    7.8552549    21844.613    3.1849922    27.954267 
    3760    1.0691742    -1314.613    12.351156    21841.421    3.1854576    27.952906 
    3770    1.0605312   -1314.6318    16.390524    21838.549    3.1858765    27.951681 
    3780    1.0517173   -1314.6492    19.813083    21836.102    3.1862336    27.950637 
    3790    1.0428152   -1314.6654    22.482364    21834.166     3.186516    27.949811 
    3800    1.0339095   -1314.6805    24.291374    21832.811    3.1867138    27.949233 
    3810    1.0250857   -1314.6947    25.167079    21832.083      3.18682    27.948922 
    3820    1.0164295   -1314.7082    25.073492    21832.004    3.1868316    27.948888 
    3830    1.0080259   -1314.7209    24.013205    21832.571    3.1867488     27.94913 
    3840   0.99995844    -1314.733    22.027286    21833.758    3.1865756    27.949636 
    3850   0.99230867   -1314.7444    19.193556    21835.512    3.1863197    27.950385 
    3860   0.98515514   -1314.7553    15.623316     21837.76    3.1859916    27.951344 
    3870   0.97857279   -1314.7656    11.456713    21840.411    3.1856048    27.952475 
    3880   0.97263221   -1314.7753    6.8569493    21843.358    3.1851752    27.953732 
    3890   0.96739894   -1314.7844    2.0036305    21846.481    3.1847199    27.955064 
    3900   0.96293267    -1314.793   -2.9144526    21849.655    3.1842572    27.956418 
    3910    0.9592865   -1314.8012   -7.7067892    21852.753    3.1838057    27.957739 
    3920     0.956506   -1314.8091   -12.188554    21855.652    3.1833834    27.958976 
    3930   0.95462827   -1314.8168   -16.187668    21858.236    3.1830071    27.960077 
    3940   0.95368083   -1314.8244   -19.551254    21860.401    3.1826918    27.961001 
    3950   0.95368034   -1314.8322    -22.15129    21862.061    3.1824502    27.961708 
    3960   0.95463131   -1314.8402   -23.889266    21863.147     3.182292    27.962171 
    3970   0.95652461   -1314.8485   -24.699726    21863.617    3.1822238    27.962371 
    3980   0.95933607   -1314.8572   -24.552602    21863.447    3.1822484    27.962299 
    3990   0.96302507   -1314.8663   -23.454275    21862.644    3.1823654    27.961957 
    4000   0.96753345   -1314.8758   -21.447339    21861.234    3.1825705    27.961356 
    4010   0.97278475   -1314.8855   -18.609084    21859.272    3.1828563    27.960519 
    4020   0.97868393   -1314.8955   -15.048716    21856.829     3.183212    27.959478 
    4030   0.98511786   -1314.9056   -10.903407    21853.999    3.1836242    27.958271 
    4040   0.99195636   -1314.9157   -6.3332582    21850.889    3.1840773    27.956945 
    4050   0.99905414   -1314.9258     -1.51535    21847.617    3.1845541    27.955549 
    4060    1.0062534   -1314.9357    3.3629593    21844.308    3.1850365    27.954138 
    4070    1.0133873   -1314.9455    8.1112381    21841.088    3.1855062    27.952764 
    4080    1.0202836   -1314.9552    12.543434    21838.078    3.1859452     27.95148 
    4090    1.0267692   -1314.9647    16.485272    21835.394    3.1863369    27.950334 
    4100    1.0326753   -1314.9742    19.781302    21833.135    3.1866665    27.949371 
    4110    1.0378425   -1314.9836    22.301255    21831.388    3.1869215    27.948625 
    4120    1.0421268   -1314.9931    23.945446    21830.216    3.1870926    27.948125 
    4130    1.0454053   -1315.0027    24.648938    21829.662    3.1871734    27.947889 
    4140    1.0475825   -1315.0122    24.384273    21829.744    3.1871616    27.947924 
    4150    1.0485955   -1315.0218    23.162626    21830.454    3.1870579    27.948226 
    4160    1.0484186   -1315.0313    21.033324     21831.76    3.1868672    27.948784 
    4170    1.0470663   -1315.0406    18.081759    21833.609    3.1865974    27.949573 
    4180     1.044593   -1315.0497    14.425785    21835.923    3.1862596     27.95056 
    4190     1.041091   -1315.0584    10.210796    21838.609    3.1858677    27.951706 
    4200     1.036684   -1315.0667     5.603716    21841.558    3.1854376    27.952964 
    4210    1.0315196   -1315.0744   0.78618027    21844.651    3.1849866    27.954284 
    4220    1.0257595   -1315.0816   -4.0527619    21847.763    3.1845328    27.955611 
    4230    1.0195698   -1315.0883   -8.7241231    21850.771    3.1840945    27.956894 
    4240    1.0131125   -1315.0946   -13.046316    21853.553    3.1836892     27.95808 
    4250    1.0065389   -1315.1004   -16.852075    21855.997    3.1833331    27.959123 
    4260   0.99998572   -1315.1059   -19.994722    21858.006    3.1830406    27.959979 
    4270   0.99357235   -1315.1113   -22.353564    21859.498    3.1828234    27.960615 
    4280   0.98740109   -1315.1165   -23.838271    21860.412    3.1826903    27.961005 
    4290    0.9815578   -1315.1216   -24.392103     21860.71    3.1826469    27.961132 
    4300    0.9761135   -1315.1266   -23.993926    21860.377    3.1826953     27.96099 
    4310   0.97112619   -1315.1315   -22.658932    21859.425    3.1828339    27.960584 
    4320   0.96664279   -1315.1363   -20.438089    21857.888    3.1830577    27.959929 
    4330   0.96270077   -1315.1409   -17.416301    21855.824    3.1833583    27.959049 
    4340   0.95932963   -1315.1451   -13.709344    21853.312    3.1837243    27.957978 
    4350   0.95655201    -1315.149   -9.4596493    21850.446    3.1841418    27.956756 
    4360   0.95438448   -1315.1523   -4.8310549    21847.339    3.1845948     27.95543 
    4370   0.95283799    -1315.155 -0.0026796407    21844.108    3.1850658    27.954052 
    4380   0.95191792   -1315.1571    4.8378826    21840.879    3.1855366    27.952675 
    4390   0.95162385   -1315.1586    9.5018102    21837.777    3.1859892    27.951351 
    4400   0.95194898   -1315.1594    13.806471    21834.921    3.1864059    27.950133 
    4410   0.95287923   -1315.1598    17.582711    21832.423    3.1867705    27.949067 
    4420   0.95439224   -1315.1596    20.681704    21830.379    3.1870688    27.948195 
    4430   0.95645623   -1315.1591    22.981054     21828.87    3.1872892     27.94755 
    4440   0.95902905   -1315.1582    24.389867    21827.953     3.187423    27.947159 
    4450   0.96205755   -1315.1569    24.852537    21827.665    3.1874651    27.947036 
    4460   0.96547753   -1315.1554    24.351076    21828.018    3.1874136    27.947187 
    4470    0.9692144   -1315.1535    22.905853    21828.998    3.1872705    27.947605 
    4480   0.97318475   -1315.1511    20.574712    21830.568    3.1870413    27.948275 
    4490   0.97729871   -1315.1483    17.450522    21832.668    3.1867347    27.949171 
    4500   0.98146303   -1315.1449     13.65727    21835.217    3.1863626    27.950259 
    4510   0.98558448   -1315.1409    9.3449004    21838.118    3.1859394    27.951497 
    4520   0.98957337   -1315.1361    4.6831506     21841.26    3.1854811    27.952837 
    4530   0.99334675   -1315.1305  -0.14533351    21844.521    3.1850055    27.954229 
    4540   0.99683116   -1315.1242   -4.9522892    21847.779    3.1845306    27.955618 
    4550    0.9999646   -1315.1171   -9.5512279    21850.908    3.1840746    27.956952 
    4560    1.0026978   -1315.1094   -13.764629     21853.79    3.1836547    27.958181 
    4570    1.0049951   -1315.1011   -17.430666    21856.315    3.1832868    27.959259 
    4580     1.006834   -1315.0924   -20.409238    21858.391    3.1829846    27.960143 
    4590    1.0082051   -1315.0834   -22.587105    21859.938    3.1827593    27.960803 
    4600    1.0091115   -1315.0743   -23.881974    21860.901     3.182619    27.961214 
    4610    1.0095673   -1315.0649   -24.245443    21861.247    3.1825687    27.961361 
    4620    1.0095968   -1315.0556   -23.664699    21860.967    3.1826095    27.961242 
    4630    1.0092332   -1315.0462    -22.16295    21860.075    3.1827393    27.960862 
    4640    1.0085171   -1315.0367   -19.798573    21858.612    3.1829524    27.960238 
    4650    1.0074952   -1315.0272   -16.663006    21856.637    3.1832399    27.959396 
    4660    1.0062188   -1315.0176   -12.877429    21854.234      3.18359    27.958371 
    4670    1.0047425   -1315.0077    -8.588329    21851.499    3.1839884    27.957205 
    4680    1.0031223   -1314.9977   -3.9620727    21848.544     3.184419    27.955945 
    4690    1.0014146   -1314.9875   0.82134459    21845.489    3.1848644    27.954641 
    4700   0.99967444    -1314.977    5.5751747    21842.457    3.1853065    27.953348 
    4710   0.99795431   -1314.9664    10.113166     21839.57    3.1857275    27.952116 
    4720   0.99630265   -1314.9557    14.256916    21836.946    3.1861104    27.950997 
    4730   0.99476268   -1314.9451    17.843017    21834.691    3.1864395    27.950034 
    4740   0.99337134   -1314.9345    20.729704    21832.897    3.1867013    27.949269 
    4750   0.99215836   -1314.9241    22.802681    21831.638     3.186885    27.948732 
    4760   0.99114544    -1314.914    23.979872    21830.967    3.1869829    27.948446 
    4770   0.99034581   -1314.9042    24.214847    21830.915    3.1869905    27.948424 
    4780   0.98976388   -1314.8947    23.498766    21831.487     3.186907    27.948668 
    4790   0.98939525   -1314.8854    21.860736    21832.665    3.1867351     27.94917 
    4800   0.98922692   -1314.8763     19.36656    21834.406     3.186481    27.949913 
    4810   0.98923782   -1314.8672    16.115955    21836.645    3.1861542    27.950869 
    4820    0.9893996   -1314.8581    12.238363      21839.3    3.1857669    27.952001 
    4830    0.9896776   -1314.8489    7.8875749     21842.27    3.1853338    27.953268 
    4840   0.99003211   -1314.8393    3.2354243    21845.442    3.1848712    27.954621 
    4850   0.99041969   -1314.8294   -1.5351645    21848.698    3.1843966     27.95601 
    4860    0.9907946   -1314.8192    -6.237457    21851.913    3.1839281    27.957381 
    4870   0.99111033   -1314.8085   -10.688217    21854.966    3.1834833    27.958683 
    4880     0.991321   -1314.7974   -14.714756    21857.743    3.1830789    27.959867 
    4890   0.99138274   -1314.7859   -18.161458    21860.139      3.18273    27.960889 
    4900    0.9912549   -1314.7741   -20.895571    21862.065    3.1824496     27.96171 
    4910   0.99090116    -1314.762   -22.812067    21863.451    3.1822479    27.962301 
    4920   0.99029036   -1314.7496   -23.837441    21864.247    3.1821321     27.96264 
    4930   0.98939721    -1314.737   -23.932339    21864.426     3.182106    27.962716 
    4940   0.98820271    -1314.724   -23.092952    21863.987    3.1821699    27.962529 
    4950    0.9866944   -1314.7107   -21.351145    21862.951    3.1823206    27.962088 
    4960   0.98486631   -1314.6968   -18.773305    21861.365    3.1825516    27.961411 
    4970   0.98271876   -1314.6824   -15.457955    21859.294    3.1828531    27.960528 
    4980   0.98025784   -1314.6673   -11.532189    21856.825    3.1832126    27.959476 
    4990   0.97749471   -1314.6514   -7.1470085    21854.059    3.1836154    27.958297 
    5000   0.97444469   -1314.6346   -2.4717283    21851.111    3.1840449    27.957039 
    5010   0.97112612   -1314.6169    2.3124097    21848.101    3.1844836    27.955755 
    5020   0.96755914   -1314.5983    7.0191758    21845.153    3.1849134    27.954498 
    5030   0.96376435   -1314.5787    11.464605    21842.387    3.1853167    27.953318 
    5040   0.95976152   -1314.5583    15.474276    21839.919    3.1856767    27.952265 
    5050   0.95556842   -1314.5372    18.890326    21837.851    3.1859784    27.951383 
    5060   0.95119998   -1314.5154    21.577873    21836.271    3.1862088    27.950709 
    5070   0.94666779    -1314.493    23.430581    21835.249     3.186358    27.950273 
    5080   0.94198014   -1314.4701    24.375079    21834.831    3.1864189    27.950095 
    5090   0.93714262   -1314.4468    24.374025    21835.042    3.1863881    27.950185 
    5100   0.93215931    -1314.423    23.427675    21835.882    3.1862656    27.950543 
    5110   0.92703424   -1314.3989    21.573851    21837.325    3.1860551    27.951159 
    5120   0.92177323   -1314.3743    18.886332    21839.324    3.1857634    27.952011 
    5130   0.91638551   -1314.3493    15.471749     21841.81    3.1854008    27.953072 
    5140   0.91088517   -1314.3237    11.465117    21844.694    3.1849802    27.954302 
    5150   0.90529203   -1314.2976    7.0242561    21847.874    3.1845167    27.955659 
    5160   0.89963198   -1314.2709    2.3233395    21851.234    3.1840271    27.957092 
    5170    0.8939367   -1314.2437    -2.454118    21854.653    3.1835289     27.95855 
    5180     0.888243    -1314.216   -7.1225325    21858.008    3.1830402     27.95998 
    5190   0.88259184   -1314.1879    -11.50148    21861.179    3.1825786    27.961332 
    5200   0.87702724   -1314.1596   -15.422604    21864.051    3.1821605    27.962557 
    5210   0.87161062   -1314.1066     -18.5865    21866.525    3.1818005    27.963611 
    5220   0.86637616   -1314.0782   -21.173416    21868.518    3.1815106    27.964461 
    5230   0.86136633     -1314.05   -22.934504    21869.962    3.1813004    27.965077 
    5240    0.8566298   -1314.0221   -23.803838    21870.814    3.1811766    27.965439 
    5250   0.85221578   -1313.9947    -23.74967    21871.049    3.1811424     27.96554 
    5260   0.84817408   -1313.9677   -22.775546     21870.67    3.1811975    27.965378 
    5270   0.84455512   -1313.9413   -20.920146    21869.702    3.1813383    27.964966 
    5280   0.84140993   -1313.9154   -18.255886    21868.194    3.1815576    27.964323 
    5290   0.83879014   -1313.8901   -14.886291    21866.215    3.1818456    27.963479 
    5300   0.83674783   -1313.8654   -10.942223    21863.852    3.1821895    27.962472 
    5310   0.83533528   -1313.8413   -6.5770653    21861.208    3.1825743    27.961345 
    5320   0.83461001   -1313.7932   -1.8098211    21858.396    3.1829838    27.960146 
    5330   0.83466922   -1313.7458    3.0229467    21855.538    3.1834001    27.958927 
    5340   0.83552539   -1313.7238    7.5798744    21852.759    3.1838049    27.957742 
    5350   0.83720716   -1313.7026    11.832149    21850.178     3.184181    27.956641 
    5360   0.83978011   -1313.6579     15.76194    21847.904    3.1845124    27.955671 
    5370   0.84327944    -1313.639    18.912215    21846.038    3.1847844    27.954875 
    5380    0.8477225   -1313.6214    21.308327    21844.661    3.1849852    27.954288 
    5390   0.85313877   -1313.6052    22.854523    21843.834    3.1851057    27.953935 
    5400   0.85955197   -1313.5661    23.640113    21843.598    3.1851402    27.953835 
    5410   0.86699504   -1313.5532    23.333262     21843.97    3.1850859    27.953993 
    5420   0.87546825   -1313.5174    22.243165    21844.945    3.1849437    27.954409 
    5430   0.88496568   -1313.4834     20.26152    21846.496    3.1847176    27.955071 
    5440   0.89544551   -1313.4755    17.318285    21848.569    3.1844154    27.955955 
    5450    0.9068943   -1313.4201    13.981478    21851.091    3.1840479     27.95703 
    5460   0.91928471   -1313.3909    9.9306162    21853.972    3.1836281    27.958259 
    5470   0.93252701   -1313.3877    5.3260032    21857.109    3.1831712    27.959597 
    5480   0.94653557   -1313.3858    0.4990289    21860.383    3.1826945    27.960993 
    5490   0.96123192   -1313.3853   -4.3620833    21863.669    3.1822162    27.962394 
    5500    0.9764907   -1313.3862   -9.0684846    21866.841    3.1817545    27.963746 
    5510   0.99218885   -1313.3884   -13.438304    21869.778    3.1813273    27.964998 
    5520    1.0081851   -1313.3919   -17.303464    21872.366    3.1809508    27.966101 
    5530    1.0243187    -1313.397   -20.515981    21874.506    3.1806396    27.967013 
    5540    1.0404199   -1313.4281   -23.102508    21876.113     3.180406    27.967698 
    5550    1.0562819   -1313.4608   -24.815544    21877.121    3.1802594    27.968128 
    5560    1.0716794   -1313.4706   -25.440922    21877.488     3.180206    27.968284 
    5570    1.0863562   -1313.4574   -24.954808    21877.197    3.1802484     27.96816 
    5580     1.100031   -1313.4703   -23.677341    21876.259    3.1803847     27.96776 
    5590    1.1123783   -1313.4846   -21.508162     21874.71      3.18061      27.9671 
    5600    1.1230725   -1313.5003   -18.531033    21872.605    3.1809161    27.966203 
    5610    1.1317915   -1313.5171   -14.860779    21870.022    3.1812918    27.965102 
    5620    1.1382529   -1313.5351   -10.639015    21867.056    3.1817232    27.963838 
    5630    1.1422707    -1313.554   -6.0287685    21863.817    3.1821945    27.962457 
    5640    1.1438281   -1313.5738   -1.2081803    21860.425    3.1826884    27.961011 
    5650    1.1431622    -1313.619    3.4862944    21857.003    3.1831867    27.959552 
    5660    1.1407457   -1313.6651    8.0230494    21853.673    3.1836717    27.958132 
    5670    1.1372387   -1313.6874    12.376544    21850.554    3.1841262    27.956801 
    5680    1.1333271   -1313.7107    16.228681    21847.756    3.1845339    27.955608 
    5690    1.1296149   -1313.7595    19.279214    21845.378    3.1848805    27.954594 
    5700     1.126489   -1313.8094    21.559081      21843.5    3.1851544    27.953793 
    5710     1.124131   -1313.8358    23.128927     21842.18    3.1853469     27.95323 
    5720    1.1225435   -1313.8632    23.778545    21841.458    3.1854522    27.952922 
    5730    1.1216765   -1313.9409     23.18177    21841.349    3.1854681    27.952875 
    5740    1.1214764   -1313.9951    21.814627    21841.838    3.1853967    27.953084 
    5750    1.1217647   -1314.0255    19.734038    21842.891    3.1852433    27.953533 
    5760    1.1224047   -1314.0567    16.873298    21844.452    3.1850156    27.954199 
    5770    1.1232813   -1314.0883    13.347505    21846.448    3.1847246     27.95505 
    5780    1.1243178   -1314.1448    9.1472265    21848.787    3.1843836    27.956048 
    5790    1.1254688   -1314.2016    4.5918453    21851.361    3.1840086    27.957146 
    5800    1.1265773   -1314.2338   0.01145249    21854.052    3.1836165    27.958293 
    5810    1.1275599   -1314.2658   -4.5645038    21856.743    3.1832246    27.959441 
    5820    1.1283446   -1314.2975   -8.9562385    21859.315      3.18285    27.960537 
    5830    1.1288676    -1314.329   -12.991921    21861.655    3.1825094    27.961535 
    5840    1.1290733     -1314.36   -16.514233    21863.658    3.1822177    27.962389 
    5850     1.128915   -1314.3907   -19.386271    21865.234    3.1819884    27.963061 
    5860    1.1283545    -1314.421   -21.496608    21866.308     3.181832    27.963519 
    5870    1.1273616   -1314.4508   -22.763364    21866.827    3.1817566     27.96374 
    5880    1.1259149   -1314.4801   -23.137156    21866.756    3.1817668     27.96371 
    5890    1.1240004    -1314.509   -22.602873    21866.088     3.181864    27.963425 
    5900    1.1216118   -1314.5372   -21.180204    21864.837    3.1820462    27.962892 
    5910    1.1187499   -1314.5647   -18.922931    21863.038    3.1823079    27.962125 
    5920    1.1154216   -1314.5914   -15.916991    21860.752    3.1826407     27.96115 
    5930    1.1116401   -1314.6171   -12.277357    21858.056    3.1830332    27.960001 
    5940    1.1074234   -1314.6418   -8.1438291    21855.045    3.1834718    27.958717 
    5950    1.1027945   -1314.6653   -3.6758528    21851.826    3.1839408    27.957344 
    5960    1.0977805   -1314.6877   0.95348008    21848.515    3.1844234    27.955932 
    5970     1.092412   -1314.7088    5.5640446     21845.23    3.1849022    27.954531 
    5980    1.0867224   -1314.7288    9.9756771    21842.091    3.1853599    27.953192 
    5990    1.0807479   -1314.7477    14.015285    21839.212    3.1857798    27.951963 
    6000    1.0745265   -1314.7654    17.523781    21836.696    3.1861469     27.95089 
    6010    1.0680978   -1314.7823     20.36255    21834.633    3.1864478     27.95001 
    6020    1.0615026   -1314.7983    22.419143    21833.097     3.186672    27.949355 
    6030    1.0547822   -1314.8135    23.611955     21832.14    3.1868118    27.948946 
    6040    1.0479785   -1314.8281    23.893628    21831.792    3.1868626    27.948797 
    6050    1.0411332   -1314.8419    23.253045     21832.06    3.1868235    27.948912 
    6060    1.0342881   -1314.8552    21.715786    21832.927    3.1866969    27.949282 
    6070    1.0274843   -1314.8677    19.343045    21834.354    3.1864887    27.949891 
    6080    1.0207624   -1314.8796    16.229047    21836.278    3.1862078    27.950712 
    6090    1.0141622   -1314.8907    12.497104    21838.621     3.185866    27.951711 
    6100    1.0077227   -1314.9009    8.2945077    21841.285    3.1854774    27.952848 
    6110    1.0014818   -1314.9104    3.7864926    21844.163    3.1850578    27.954076 
    6120   0.99547663    -1314.919  -0.85044237    21847.137    3.1846242    27.955344 
    6130   0.98974351   -1314.9267   -5.4355593    21850.088     3.184194    27.956603 
    6140   0.98431777   -1314.9337   -9.7909601    21852.898    3.1837846    27.957801 
    6150   0.97923401     -1314.94   -13.748437    21855.454    3.1834122    27.958891 
    6160   0.97452615   -1314.9456   -17.155845    21857.655    3.1830917     27.95983 
    6170   0.97022746   -1314.9508   -19.882766    21859.411     3.182836    27.960578 
    6180   0.96637066   -1314.9556   -21.825302    21860.653    3.1826551    27.961108 
    6190   0.96298781   -1314.9601   -22.909838    21861.331    3.1825565    27.961397 
    6200   0.96011032   -1314.9643   -23.095681    21861.417     3.182544    27.961434 
    6210   0.95776864   -1314.9683   -22.376497    21860.906    3.1826184    27.961216 
    6220   0.95599192   -1314.9721   -20.780531    21859.817    3.1827769    27.960752 
    6230   0.95480737   -1314.9756   -18.369572    21858.192    3.1830135    27.960059 
    6240   0.95423944   -1314.9789   -15.236727    21856.094     3.183319    27.959164 
    6250   0.95430865   -1314.9818   -11.503032    21853.604    3.1836817    27.958102 
    6260   0.95503012   -1314.9842   -7.3130094    21850.819    3.1840875    27.956915 
    6270   0.95641185   -1314.9862   -2.8293025    21847.847    3.1845207    27.955647 
    6280   0.95845273   -1314.9878    1.7734613    21844.804    3.1849643    27.954349 
    6290   0.96114052   -1314.9889    6.3153538    21841.809     3.185401    27.953071 
    6300   0.96444992   -1314.9895    10.618148    21838.979    3.1858138    27.951864 
    6310   0.96834109   -1314.9899     14.51236    21836.425    3.1861864    27.950774 
    6320   0.97275879     -1314.99    17.844054    21834.247    3.1865043    27.949845 
    6330   0.97763255     -1314.99      20.4811     21832.53    3.1867548    27.949112 
    6340   0.98287781   -1314.9899    22.318608    21831.342    3.1869282    27.948606 
    6350   0.98839817   -1314.9898    23.283294     21830.73    3.1870176    27.948344 
    6360   0.99408847   -1314.9898    23.336537    21830.719    3.1870192     27.94834 
    6370   0.99983827   -1314.9899    22.476003    21831.309    3.1869331    27.948591 
    6380    1.0055355     -1314.99    20.735736    21832.478    3.1867625     27.94909 
    6390    1.0110696   -1314.9901    18.184719    21834.181    3.1865139    27.949817 
    6400    1.0163343   -1314.9902    14.923974    21836.352    3.1861971    27.950743 
    6410    1.0212295   -1314.9902     11.08235    21838.907    3.1858243    27.951833 
    6420    1.0256629     -1314.99    6.8111981    21841.747    3.1854101    27.953045 
    6430    1.0295503   -1314.9896    2.2781943    21844.762    3.1849705    27.954331 
    6440    1.0328167   -1314.9889   -2.3394065    21847.834    3.1845226    27.955641 
    6450    1.0353965    -1314.988    -6.861796    21850.845    3.1840837    27.956926 
    6460    1.0372345   -1314.9868   -11.113621    21853.678     3.183671    27.958134 
    6470    1.0382863   -1314.9855   -14.930701    21856.223    3.1833003    27.959219 
    6480    1.0385198    -1314.984   -18.166218    21858.381     3.182986    27.960139 
    6490    1.0379169   -1314.9826   -20.696158    21860.069    3.1827402    27.960859 
    6500    1.0364744   -1314.9812   -22.423842    21861.222    3.1825724    27.961351 
    6510    1.0342064   -1314.9798   -23.283416    21861.795    3.1824889    27.961595 
    6520    1.0311456   -1314.9786     -23.2422    21861.766    3.1824931    27.961582 
    6530    1.0273434   -1314.9775   -22.301841    21861.137    3.1825847    27.961314 
    6540    1.0228705   -1314.9764   -20.498239    21859.932    3.1827602      27.9608 
    6550    1.0178147   -1314.9753   -17.900255    21858.198    3.1830126    27.960061 
    6560    1.0122789   -1314.9742   -14.607226    21856.004    3.1833322    27.959126 
    6570    1.0063769   -1314.9728   -10.745364    21853.433    3.1837066    27.958029 
    6580    1.0002289   -1314.9711   -6.4631213    21850.587    3.1841213    27.956816 
    6590   0.99395686   -1314.9691    -1.925672    21847.577      3.18456    27.955532 
    6600   0.98768046   -1314.9666    2.6913242    21844.519    3.1850058    27.954227 
    6610   0.98151372   -1314.9638     7.208464    21841.533    3.1854413    27.952954 
    6620   0.97556295   -1314.9605    11.449599    21838.735    3.1858494     27.95176 
    6630   0.96992594    -1314.957    15.248821    21836.234    3.1862143    27.950693 
    6640   0.96469208   -1314.9531    18.457134    21834.128    3.1865216    27.949794 
    6650   0.95994327    -1314.949    20.948535    21832.499    3.1867593    27.949099 
    6660   0.95575488   -1314.9447      22.6252    21831.412    3.1869181    27.948635 
    6670   0.95219671   -1314.9404    23.421555    21830.908    3.1869916     27.94842 
    6680   0.94933311   -1314.9359    23.307005    21831.008     3.186977    27.948463 
    6690   0.94722202   -1314.9313    22.287206    21831.708    3.1868747    27.948762 
    6700   0.94591238   -1314.9265      20.4038    21832.983    3.1866887    27.949306 
    6710   0.94543951   -1314.9214    17.732631    21834.783    3.1864259    27.950074 
    6720   0.94581832    -1314.916    14.380532     21837.04    3.1860966    27.951037 
    6730   0.94703482   -1314.9102    10.480846    21839.667    3.1857135    27.952158 
    6740   0.94903715   -1314.9038    6.1878839    21842.563    3.1852911    27.953393 
    6750   0.95172857   -1314.8968    1.6706195    21845.617    3.1848457    27.954696 
    6760   0.95496557   -1314.8892   -2.8941164    21848.713    3.1843944    27.956017 
    6770   0.95856394   -1314.8809   -7.3286189    21851.734    3.1839542    27.957305 
    6780   0.96231362    -1314.872   -11.461187    21854.564    3.1835419    27.958512 
    6790   0.96600005   -1314.8625    -15.13264    21857.097    3.1831729    27.959592 
    6800   0.96942681   -1314.8524   -18.202245    21859.239    3.1828611    27.960505 
    6810   0.97243395   -1314.8419   -20.552883    21860.909    3.1826179    27.961217 
    6820   0.97490813    -1314.831   -22.095298    21862.047    3.1824522    27.961702 
    6830   0.97678413   -1314.8198   -22.771313    21862.614    3.1823696    27.961944 
    6840   0.97803992   -1314.8083   -22.555912    21862.593    3.1823728    27.961935 
    6850   0.97868826   -1314.7965   -21.458136    21861.989    3.1824607    27.961677 
    6860   0.97876771   -1314.7845   -19.520762    21860.831    3.1826293    27.961184 
    6870    0.9783345   -1314.7721   -16.818758    21859.169    3.1828712    27.960475 
    6880   0.97745597   -1314.7593   -13.456575    21857.074    3.1831762    27.959582 
    6890   0.97620555   -1314.7461   -9.5643215    21854.634    3.1835317    27.958541 
    6900   0.97465899   -1314.7325   -5.2929636    21851.948     3.183923    27.957396 
    6910   0.97289149   -1314.7184  -0.80866362    21849.128     3.184334    27.956193 
    6920    0.9709754   -1314.7039    3.7135342    21846.289    3.1847478    27.954982 
    6930   0.96897839   -1314.6891    8.0964616    21843.548    3.1851474    27.953813 
    6940   0.96696191   -1314.6739    12.167773    21841.018    3.1855164    27.952734 
    6950   0.96498004   -1314.6585    15.766805    21838.803    3.1858394    27.951789 
    6960   0.96307864   -1314.6431    18.751059    21836.997    3.1861029    27.951019 
    6970   0.96129502   -1314.6278    21.002019    21835.676    3.1862957    27.950455 
    6980   0.95965813   -1314.6126    22.430045    21834.897    3.1864094    27.950122 
    6990   0.95818929   -1314.5977    22.978092    21834.696    3.1864386    27.950037 
    7000   0.95690344    -1314.583    22.624092    21835.089    3.1863814    27.950204 
    7010   0.95581084   -1314.5688    21.381866    21836.064    3.1862391     27.95062 
    7020   0.95491891   -1314.5549    19.300531     21837.59    3.1860164    27.951272 
    7030   0.95423409   -1314.5413    16.462417    21839.613    3.1857213    27.952135 
    7040   0.95376346   -1314.5281    12.979623     21842.06    3.1853644    27.953179 
    7050   0.95351581   -1314.5151     8.989356    21844.841    3.1849589    27.954365 
    7060   0.95350226   -1314.5024     4.648297    21847.852    3.1845199    27.955649 
    7070    0.9537362   -1314.4898   0.12624404    21850.982    3.1840637    27.956984 
    7080   0.95423277   -1314.4776   -4.4006728    21854.114    3.1836074     27.95832 
    7090     0.955008   -1314.4656   -8.7569204    21857.132    3.1831679    27.959607 
    7100   0.95607768    -1314.454   -12.774355    21859.922    3.1827617    27.960796 
    7110   0.95745621   -1314.4429   -16.298616     21862.38    3.1824038    27.961844 
    7120   0.95915552   -1314.4324   -19.194908    21864.416    3.1821074    27.962712 
    7130   0.96118413   -1314.4225   -21.352962    21865.955    3.1818834    27.963369 
    7140    0.9635464   -1314.4134   -22.691043    21866.942    3.1817398    27.963789 
    7150   0.96624204   -1314.4052   -23.158882    21867.342    3.1816817    27.963959 
    7160   0.96926571   -1314.3978   -22.739458    21867.142    3.1817107    27.963874 
    7170   0.97260687   -1314.3912   -21.449573    21866.355    3.1818252    27.963539 
    7180    0.9762497   -1314.3855   -19.339233    21865.015    3.1820203    27.962967 
    7190   0.98017308   -1314.3805   -16.489823    21863.175     3.182288    27.962183 
    7200   0.98435066   -1314.3763   -13.011145    21860.911    3.1826176    27.961218 
    7210   0.98875086   -1314.3726   -9.0373872    21858.312     3.182996     27.96011 
    7220   0.99333699   -1314.3695    -4.722154    21855.483    3.1834081    27.958903 
    7230   0.99806721   -1314.3669   -0.2326932    21852.533    3.1838378    27.957646 
    7240    1.0028946   -1314.3648    4.2564755     21849.58    3.1842681    27.956386 
    7250    1.0077674   -1314.3631    8.5703127    21846.739    3.1846822    27.955174 
    7260    1.0126286   -1314.3619    12.540134    21844.121    3.1850639    27.954058 
    7270    1.0174165   -1314.3612    16.010333    21841.829    3.1853981     27.95308 
    7280    1.0220646    -1314.361    18.844661    21839.951     3.185672    27.952279 
    7290     1.026502   -1314.3614     20.93179    21838.561    3.1858748    27.951686 
    7300    1.0306531   -1314.3625    22.189897    21837.712    3.1859987    27.951323 
    7310    1.0344387   -1314.3642    22.570048    21837.435     3.186039    27.951205 
    7320    1.0377754   -1314.3664    22.058221    21837.741    3.1859944    27.951336 
    7330    1.0405769   -1314.3692    20.675863    21838.615    3.1858669    27.951709 
    7340    1.0427544   -1314.3724    18.478956    21840.022    3.1856616    27.952309 
    7350    1.0442184    -1314.376    15.555648    21841.905     3.185387    27.953112 
    7360    1.0448805   -1314.3798     12.02255    21844.188     3.185054    27.954086 
    7370     1.044658   -1314.3837    8.0199068    21846.781    3.1846761    27.955192 
    7380    1.0434794   -1314.3876    3.7058609    21849.579    3.1842682    27.956386 
    7390    1.0412948   -1314.3914   -0.7499235    21852.472    3.1838467     27.95762 
    7400    1.0380877   -1314.3952   -5.1729826    21855.344    3.1834283    27.958844 
    7410    1.0338913   -1314.3988   -9.3908469    21858.081    3.1830296    27.960012 
    7420    1.0288032   -1314.4024   -13.239643    21860.575    3.1826665    27.961075 
    7430    1.0229956    -1314.406   -16.570271    21862.725    3.1823535    27.961991 
    7440    1.0167124   -1314.4096   -19.253966    21864.446     3.182103    27.962725 
    7450    1.0102501   -1314.4133   -21.187071    21865.669    3.1819251    27.963246 
    7460    1.0039229   -1314.4171    -22.29489    21866.343    3.1818269    27.963534 
    7470   0.99802033    -1314.421   -22.534463    21866.441    3.1818127    27.963576 
    7480   0.99277124   -1314.4252    -21.89618    21865.957    3.1818832    27.963369 
    7490   0.98832271   -1314.4294   -20.404145    21864.907     3.182036    27.962921 
    7500   0.98473787   -1314.4336   -18.115282     21863.33    3.1822654    27.962249 
    7510   0.98200764   -1314.4377   -15.117221    21861.287    3.1825629    27.961378 
    7520   0.98006958   -1314.4417   -11.525042    21858.855     3.182917    27.960341 
    7530   0.97882717   -1314.4453   -7.4769919    21856.127    3.1833142    27.959178 
    7540   0.97816602   -1314.4485   -3.1292934    21853.208    3.1837394    27.957934 
    7550   0.97796563   -1314.4512    1.3497618    21850.211    3.1841761    27.956655 
    7560   0.97810706   -1314.4533    5.7862645    21847.252    3.1846074    27.955393 
    7570   0.97847754   -1314.4548    10.007441    21844.444    3.1850168    27.954195 
    7580   0.97897309   -1314.4556    13.848456    21841.897    3.1853882    27.953109 
    7590   0.97949992   -1314.4558    17.158995    21839.708    3.1857074    27.952175 
    7600   0.97997534   -1314.4554    19.809335    21837.965    3.1859618    27.951431 
    7610   0.98032839   -1314.4543    21.695641    21836.733    3.1861415    27.950906 
    7620   0.98050038   -1314.4527    22.744234    21836.061    3.1862395    27.950619 
    7630   0.98044547   -1314.4504    22.914635    21835.977    3.1862518    27.950583 
    7640   0.98013116   -1314.4475    22.201222    21836.483    3.1861779    27.950799 
    7650   0.97953865   -1314.4439    20.633429    21837.562    3.1860205     27.95126 
    7660   0.97866306   -1314.4395    18.274475    21839.172    3.1857856    27.951946 
    7670   0.97751331   -1314.4343    15.218682    21841.252    3.1854822    27.952834 
    7680   0.97611156   -1314.4281    11.587525    21843.725    3.1851216    27.953889 
    7690   0.97449212   -1314.4209    7.5245982    21846.495    3.1847178     27.95507 
    7700   0.97269955   -1314.4126    3.1897388    21849.458    3.1842859    27.956334 
    7710   0.97078579   -1314.4033   -1.2474246    21852.501    3.1838424    27.957632 
    7720   0.96880589    -1314.393   -5.6142169    21855.512    3.1834039    27.958916 
    7730    0.9668122   -1314.3818   -9.7416766    21858.376    3.1829868    27.960137 
    7740    0.9648466   -1314.3697   -13.471068    21860.986    3.1826066     27.96125 
    7750   0.96293131   -1314.3568   -16.659906    21863.248    3.1822774    27.962214 
    7760     0.961059   -1314.3434   -19.187284    21865.078    3.1820111    27.962994 
    7770   0.95918477   -1314.3297   -20.958335    21866.411    3.1818171    27.963563 
    7780    0.9572238   -1314.3156   -21.907668    21867.202     3.181702      27.9639 
    7790   0.95505946   -1314.3014   -22.001685    21867.426    3.1816694    27.963995 
    7800   0.95256579   -1314.2872   -21.239687    21867.081    3.1817196    27.963848 
    7810   0.94964378    -1314.273   -19.653761    21866.188    3.1818496    27.963467 
    7820   0.94626319    -1314.259   -17.307441    21864.787    3.1820534     27.96287 
    7830   0.94249384   -1314.2452   -14.293272     21862.94    3.1823222    27.962083 
    7840   0.93850974   -1314.2317   -10.729353    21860.726    3.1826446    27.961139 
    7850   0.93456287   -1314.2186   -6.7550107    21858.236    3.1830071    27.960077 
    7860   0.93094122   -1314.2059    -2.525666    21855.574    3.1833948    27.958942 
    7870    0.9279307   -1314.1938    1.7929784    21852.848    3.1837918     27.95778 
    7880   0.92579055   -1314.1823    6.0312693    21850.172    3.1841818    27.956639 
    7890   0.92474008   -1314.1717     10.02221    21847.653    3.1845489    27.955564 
    7900     0.924951    -1314.162    13.608072    21845.395    3.1848781    27.954601 
    7910   0.92654166   -1314.1535    16.646717     21843.49    3.1851559    27.953789 
    7920   0.92957232   -1314.1463    19.017367    21842.016    3.1853708     27.95316 
    7930   0.93404292   -1314.1405    20.625557    21841.033    3.1855141    27.952741 
    7940   0.93989517   -1314.1361    21.407037    21840.584    3.1855797    27.952549 
    7950   0.94702066   -1314.1334    21.330459    21840.686    3.1855647    27.952593 
    7960   0.95527426   -1314.1323    20.398701    21841.339    3.1854695    27.952871 
    7970   0.96449044   -1314.1327    18.648759    21842.518    3.1852977    27.953374 
    7980   0.97449818   -1314.1346     16.15021    21844.177    3.1850557    27.954081 
    7990   0.98513131    -1314.138    13.002295    21846.251    3.1847533    27.954966 
    8000    0.9962325   -1314.1427    9.3297881     21848.66    3.1844021    27.955994 
    8010    1.0076519   -1314.1486    5.2778251    21851.309    3.1840161    27.957124 
    8020    1.0192421   -1314.1557    1.0059646    21854.093    3.1836106    27.958311 
    8030    1.0308523   -1314.1638    -3.318256    21856.901    3.1832015    27.959508 
    8040    1.0423221    -1314.173   -7.5259821    21859.622    3.1828053    27.960668 
    8050    1.0534768   -1314.1831   -11.453647    21862.147    3.1824377    27.961745 
    8060    1.0641239   -1314.1943   -14.949266    21864.375    3.1821134    27.962695 
    8070    1.0740511   -1314.2064   -17.878184    21866.215    3.1818456    27.963479 
    8080    1.0830267   -1314.2196   -20.128094    21867.592    3.1816453    27.964066 
    8090    1.0908051   -1314.2338   -21.613147    21868.448    3.1815207    27.964431 
    8100    1.0971416    -1314.249   -22.277024    21868.745    3.1814775    27.964558 
    8110    1.1018221   -1314.2652   -22.094872    21868.466    3.1815182    27.964439 
    8120     1.104716   -1314.2823   -21.074029    21867.615    3.1816418    27.964076 
    8130    1.1058507   -1314.3004   -19.253511    21866.221    3.1818447    27.963482 
    8140    1.1054881   -1314.3192   -16.702371    21864.331    3.1821198    27.962676 
    8150     1.104153   -1314.3388   -13.517085     21862.01    3.1824576    27.961687 
    8160     1.102558   -1314.3591   -9.8182363    21859.342     3.182846    27.960549 
    8170    1.1014202   -1314.3799   -5.7465762    21856.423    3.1832711    27.959305 
    8180    1.1012556   -1314.4012   -1.4583181    21853.359    3.1837175    27.957998 
    8190    1.1022671    -1314.423    2.8805332    21850.259    3.1841691    27.956676 
    8200    1.1043701   -1314.4453    7.1007286    21847.236    3.1846097    27.955387 
    8210    1.1072979    -1314.468     11.03677      21844.4    3.1850232    27.954177 
    8220     1.110714   -1314.4912    14.533838     21841.85     3.185395    27.953089 
    8230    1.1142902   -1314.5149    17.454252    21839.678    3.1857118    27.952162 
    8240    1.1177496   -1314.5391     19.68318    21837.958    3.1859628    27.951428 
    8250    1.1208861   -1314.5638    21.133387    21836.746    3.1861395    27.950912 
    8260      1.12357   -1314.5889    21.748827    21836.081    3.1862366    27.950628 
    8270    1.1257418   -1314.6143    21.506916    21835.976    3.1862519    27.950583 
    8280    1.1273971     -1314.64    20.419386    21836.426    3.1861862    27.950775 
    8290    1.1285643   -1314.6658    18.531681    21837.403    3.1860437    27.951192 
    8300    1.1292813   -1314.6915    15.920946    21838.857    3.1858316    27.951812 
    8310    1.1295761   -1314.7171    12.692723     21840.72    3.1855598    27.952607 
    8320    1.1294567   -1314.7423    8.9765287     21842.91    3.1852404    27.953541 
    8330    1.1289097   -1314.7669    4.9205198     21845.33    3.1848875    27.954574 
    8340    1.1279063   -1314.7909   0.68549146    21847.876    3.1845164     27.95566 
    8350    1.1264112   -1314.8142   -3.5615412    21850.439    3.1841429    27.956752 
    8360    1.1243907   -1314.8366   -7.6539123    21852.908    3.1837832    27.957805 
    8370    1.1218192   -1314.8582   -11.431765    21855.178    3.1834525    27.958774 
    8380    1.1186824   -1314.8789   -14.748159    21857.152     3.183165    27.959615 
    8390    1.1149779   -1314.8987   -17.474603    21858.744    3.1829332    27.960294 
    8400    1.1107148   -1314.9176   -19.505828    21859.883    3.1827673     27.96078 
    8410    1.1059119   -1314.9357   -20.763648    21860.518    3.1826748    27.961051 
    8420     1.100596   -1314.9529   -21.199801    21860.617    3.1826605    27.961093 
    8430    1.0948004   -1314.9693   -20.797672    21860.168    3.1827258    27.960901 
    8440    1.0885643   -1314.9848   -19.572884    21859.182    3.1828694    27.960481 
    8450    1.0819313   -1314.9994   -17.572706    21857.691    3.1830864    27.959845 
    8460    1.0749496    -1315.013   -14.874327    21855.749    3.1833694    27.959017 
    8470    1.0676709   -1315.0256   -11.582024    21853.423    3.1837081    27.958025 
    8480    1.0601504   -1315.0371    -7.823311    21850.801    3.1840901    27.956907 
    8490     1.052446   -1315.0476    -3.744179     21847.98    3.1845013    27.955704 
    8500    1.0446181   -1315.0569   0.49641823    21845.065    3.1849263     27.95446 
    8510    1.0367285   -1315.0652    4.7326542    21842.165    3.1853491    27.953223 
    8520    1.0288404   -1315.0724    8.7982753     21839.39    3.1857539    27.952039 
    8530    1.0210175   -1315.0788    12.533158    21836.844    3.1861253    27.950953 
    8540    1.0133232   -1315.0844    15.789712    21834.624    3.1864492    27.950006 
    8550    1.0058204   -1315.0893    18.438858    21832.812    3.1867136    27.949233 
    8560   0.99857079   -1315.0937    20.375316    21831.478    3.1869084    27.948664 
    8570   0.99163408   -1315.0976    21.521956     21830.67    3.1870264    27.948319 
    8580   0.98506796   -1315.1012    21.833004    21830.417    3.1870633    27.948211 
    8590   0.97892737   -1315.1045    21.295954    21830.726    3.1870181    27.948343 
    8600   0.97326432   -1315.1075    19.932084    21831.585    3.1868928    27.948709 
    8610   0.96812754   -1315.1103    17.795553    21832.956    3.1866926    27.949294 
    8620   0.96356225   -1315.1128    14.971129    21834.786    3.1864256    27.950075 
    8630   0.95960996    -1315.115    11.570655        21837    3.1861025     27.95102 
    8640   0.95630822   -1315.1169    7.7284273    21839.511    3.1857362    27.952091 
    8650   0.95369028   -1315.1183    3.5957066     21842.22     3.185341    27.953247 
    8660   0.95178455   -1315.1193  -0.66538888    21845.021    3.1849327    27.954442 
    8670    0.9506138   -1315.1199   -4.8883376    21847.802    3.1845272    27.955628 
    8680   0.95019389   -1315.1201   -8.9087471    21850.456    3.1841404     27.95676 
    8690   0.95053203   -1315.1199   -12.570705    21852.879    3.1837874    27.957793 
    8700   0.95162433   -1315.1194   -15.732712    21854.975     3.183482    27.958687 
    8710    0.9534528   -1315.1185   -18.272989    21856.664     3.183236    27.959407 
    8720   0.95598188   -1315.1174   -20.093989     21857.88    3.1830589    27.959926 
    8730   0.95915491    -1315.116   -21.125967    21858.577    3.1829575    27.960223 
    8740   0.96289124   -1315.1143   -21.329508    21858.727    3.1829356    27.960287 
    8750   0.96708479   -1315.1123   -20.696954    21858.327    3.1829939    27.960116 
    8760   0.97160487     -1315.11    -19.25266    21857.392      3.18313    27.959718 
    8770   0.97630007   -1315.1072   -17.052106    21855.961    3.1833384    27.959107 
    8780   0.98100494   -1315.1038   -14.179871    21854.091    3.1836108     27.95831 
    8790   0.98554907   -1315.0996   -10.746518    21851.857    3.1839362    27.957357 
    8800   0.98976705   -1315.0947   -6.8845059    21849.348    3.1843019    27.956287 
    8810   0.99350786   -1315.0889    -2.743231    21846.663    3.1846932    27.955142 
    8820   0.99664241   -1315.0821    1.5166263     21843.91    3.1850946    27.953968 
    8830   0.99906856   -1315.0742    5.7292644    21841.199    3.1854899    27.952811 
    8840    1.0007135   -1315.0654    9.7302065    21838.639    3.1858634    27.951719 
    8850    1.0015342   -1315.0556    13.362784    21836.331    3.1862001    27.950735 
    8860    1.0015158   -1315.0448    16.484394    21834.371    3.1864862    27.949898 
    8870    1.0006694   -1315.0332    18.972264    21832.837    3.1867101    27.949243 
    8880   0.99902959   -1315.0208    20.728468    21831.793    3.1868624    27.948798 
    8890   0.99665079   -1315.0076    21.683955    21831.284    3.1869367    27.948581 
    8900   0.99360437   -1314.9938    21.801408    21831.335    3.1869293    27.948602 
    8910   0.98997496   -1314.9793    21.076782    21831.947    3.1868399    27.948864 
    8920   0.98585678   -1314.9642    19.539452    21833.102    3.1866713    27.949357 
    8930   0.98134959   -1314.9484    17.250961     21834.76    3.1864293    27.950064 
    8940   0.97655437   -1314.9319    14.302432    21836.862    3.1861226    27.950961 
    8950   0.97156853   -1314.9147    10.810767    21839.332    3.1857624    27.952015 
    8960   0.96648095   -1314.8968    6.9138214    21842.078    3.1853618    27.953186 
    8970   0.96136678   -1314.8781    2.7647746    21845.001    3.1849355    27.954433 
    8980    0.9562826   -1314.8586   -1.4740412    21847.994    3.1844992     27.95571 
[...]
   37860    127.70636    -1044.638     9934.492    19338.307    3.5977773    26.841461 
   37870    127.25494   -1045.1311    9926.1528      19337.9     3.597853    26.841273 
   37880    126.30788   -1045.3486    9922.0816    19337.482    3.5979306    26.841079 
   37890    124.86836    -1045.041     9923.991    19337.054    3.5980104    26.840881 
   37900    123.00095   -1044.2657    9931.2648    19336.614    3.5980923    26.840678 
   37910    120.84075   -1043.5083    9940.1742    19336.164    3.5981759    26.840469 
   37920    118.58702   -1042.4573    9952.4383    19335.706    3.5982611    26.840258 
   37930    116.45582   -1041.4808    9964.8798    19335.242    3.5983475    26.840043 
   37940    114.64105   -1040.5461     9976.923    19334.774    3.5984346    26.839826 
   37950    113.28065    -1039.768    9986.7788    19334.304    3.5985221    26.839609 
   37960    112.45639   -1039.4016    9991.6226    19333.833    3.5986097    26.839391 
   37970    112.20196    -1039.531    9989.9297    19333.363    3.5986972    26.839173 
   37980     112.5127   -1040.1756    9980.9161    19332.893    3.5987847    26.838956 
   37990    113.34844   -1041.2754    9964.7929    19332.422    3.5988725    26.838738 
   38000     114.6346   -1042.9795    9940.8471    19331.946    3.5989611    26.838518 
   38010     116.2548   -1045.1444    9910.9069    19331.462    3.5990511    26.838294 
   38020    118.05937   -1047.4981    9878.1261    19330.965    3.5991437    26.838064 
   38030    119.87696   -1049.7079    9846.3476    19330.449    3.5992397    26.837825 
   38040    121.53305   -1051.6797    9817.8414     19329.91    3.5993402    26.837575 
   38050    122.86772   -1053.3366    9794.6366    19329.342     3.599446    26.837312 
   38060    123.75329   -1054.3958    9779.8862    19328.741    3.5995578    26.837034 
   38070    124.11304   -1054.8854    9774.1362    19328.106     3.599676    26.836741 
   38080    123.92806   -1054.6109    9778.9502    19327.436    3.5998009     26.83643 
   38090    123.23851   -1053.7217    9792.9937    19326.731    3.5999322    26.836104 
   38100    122.13115   -1052.2754    9815.1548    19325.994    3.6000695    26.835763 
   38110    120.72314   -1050.3887    9843.6437    19325.229     3.600212    26.835409 
   38120    119.14621   -1048.2666    9875.9271     19324.44    3.6003589    26.835044 
   38130    117.53194   -1046.0369    9909.9623    19323.634    3.6005092     26.83467 
   38140    116.01274   -1043.9512     9942.871    19322.815    3.6006617    26.834291 
   38150     114.7136   -1041.9583    9973.9388     19321.99    3.6008155     26.83391 
   38160    113.74525   -1040.3833    9999.9554    19321.164    3.6009695    26.833527 
   38170    113.19549   -1039.2032    10020.374     19320.34    3.6011229    26.833146 
   38180    113.11606   -1038.4947    10034.304    19319.523    3.6012752    26.832768 
   38190    113.51624   -1038.2043    10042.184    19318.715    3.6014258    26.832393 
   38200    114.35874   -1038.5619    10042.891    19317.917    3.6015746    26.832024 
   38210    115.56652   -1039.0382    10040.926    19317.129    3.6017215    26.831659 
   38220    117.02852   -1039.7569    10036.426    19316.352    3.6018665    26.831299 
   38230    118.61561   -1040.3673    10032.886    19315.583    3.6020099    26.830943 
   38240    120.19098   -1040.8464    10031.433    19314.823    3.6021517    26.830591 
   38250    121.62039    -1041.312    10032.022     19314.07    3.6022919    26.830243 
   38260    122.78888   -1041.4968    10037.053    19313.327    3.6024307    26.829898 
   38270    123.61391   -1041.2477    10047.842    19312.592    3.6025677    26.829558 
   38280    124.05527   -1040.4564    10065.101    19311.869    3.6027026    26.829223 
   38290    124.11722   -1039.2549    10087.582    19311.159    3.6028351    26.828895 
   38300    123.84334   -1037.6647    10114.571    19310.467    3.6029642    26.828574 
   38310    123.30647   -1036.1512    10142.079    19309.796    3.6030893    26.828264 
   38320    122.60298   -1034.4657    10170.978    19309.153    3.6032094    26.827965 
   38330    121.84165   -1032.7168    10199.582     19308.54    3.6033237    26.827682 
   38340    121.13348   -1031.1872    10224.971    19307.964    3.6034313    26.827415 
   38350    120.58383   -1029.6387     10247.96    19307.427    3.6035314    26.827166 
   38360    120.27081   -1028.6094    10264.161    19306.934    3.6036234    26.826938 
   38370    120.23517   -1027.9756    10274.161    19306.488    3.6037067    26.826731 
   38380    120.46724    -1028.088    10275.666    19306.089    3.6037812    26.826547 
   38390    120.91067   -1028.5967    10271.668    19305.738    3.6038467    26.826384 
   38400    121.47185   -1029.3238    10264.235    19305.434    3.6039034    26.826243 
   38410    122.04525   -1030.0038     10256.16    19305.176    3.6039516    26.826124 
   38420     122.5341   -1030.5808    10248.676    19304.962    3.6039915    26.826025 
   38430    122.87085   -1031.0654    10242.275    19304.791    3.6040235    26.825945 
   38440    123.03092   -1031.3313    10238.013    19304.661    3.6040477    26.825885 
   38450    123.03436   -1031.4123    10235.437    19304.572    3.6040643    26.825844 
   38460    122.93283   -1031.4846    10232.817    19304.523    3.6040735    26.825821 
   38470    122.79108   -1031.5945    10229.231    19304.514    3.6040753    26.825817 
   38480    122.66268   -1031.7493     10224.09    19304.543    3.6040699     26.82583 
   38490    122.58011   -1032.1489    10215.648    19304.609    3.6040574    26.825861 
   38500    122.55071   -1032.7905    10203.795    19304.712    3.6040382    26.825909 
   38510    122.55518   -1033.5663    10189.354    19304.849    3.6040126    26.825972 
   38520    122.54938   -1034.5634    10171.952    19305.018    3.6039812     26.82605 
   38530    122.46539   -1035.5773    10153.341    19305.214    3.6039444    26.826141 
   38540     122.2183   -1036.6146    10133.821    19305.437     3.603903    26.826244 
   38550    121.71737   -1037.7844    10112.894     19305.68    3.6038574    26.826357 
   38560     120.8904   -1038.6543    10093.677    19305.943    3.6038085    26.826479 
   38570    119.72019   -1039.4921    10074.237     19306.22    3.6037568    26.826607 
   38580    118.29181   -1040.1432    10055.522    19306.509    3.6037028    26.826741 
   38590    116.81274   -1040.9822    10034.879    19306.806    3.6036474    26.826879 
   38600    115.56126   -1041.9363     10012.88    19307.108     3.603591    26.827019 
   38610    114.77117   -1043.3593    9987.1077    19307.411    3.6035344    26.827159 
   38620    114.54697    -1044.827     9960.511    19307.712    3.6034783    26.827298 
   38630    114.85562   -1046.5948    9931.4004    19308.004    3.6034237    26.827434 
   38640    115.56387   -1048.6023    9900.5515    19308.284    3.6033715    26.827563 
   38650    116.49484   -1050.4665    9871.3389    19308.547    3.6033225    26.827685 
   38660    117.46659   -1052.2905    9844.0098    19308.787    3.6032776    26.827796 
   38670     118.3192   -1053.6648    9822.4561        19309    3.6032378    26.827895 
   38680      118.933   -1054.8777    9805.5651    19309.183    3.6032037     26.82798 
   38690    119.22969    -1055.449     9797.229    19309.333    3.6031758    26.828049 
   38700    119.18493   -1055.3075    9798.0779    19309.448    3.6031543    26.828102 
   38710    118.82435    -1054.837      9805.15    19309.529    3.6031391     26.82814 
   38720    118.21448   -1053.9317    9818.5392    19309.578    3.6031301    26.828162 
   38730    117.45004   -1052.7658     9836.139    19309.596    3.6031267    26.828171 
   38740    116.63803   -1051.5026    9855.7967    19309.586    3.6031285    26.828166 
   38750    115.88702   -1050.0843    9876.9037    19309.552    3.6031348    26.828151 
   38760    115.29582   -1048.8324     9896.323    19309.498    3.6031449    26.828126 
   38770    114.94337   -1047.7715    9913.1726    19309.427    3.6031582    26.828093 
   38780    114.87971   -1047.0108    9926.2125    19309.342    3.6031742    26.828053 
   38790    115.12622   -1046.5998    9934.9026    19309.244    3.6031924    26.828008 
   38800    115.67318   -1046.3296    9940.7895    19309.136    3.6032126    26.827958 
   38810    116.47833   -1046.4211     9942.676    19309.018    3.6032345    26.827903 
   38820    117.47173   -1046.5499    9943.3525    19308.891    3.6032582    26.827844 
   38830    118.56742   -1046.9438    9941.8706    19308.755    3.6032835    26.827782 
   38840    119.67103   -1047.1135    9942.2969    19308.611    3.6033105    26.827714 
   38850    120.69114   -1047.4365    9942.6198    19308.457    3.6033393    26.827643 
   38860    121.54576   -1047.5397    9945.9882    19308.294    3.6033697    26.827568 
   38870     122.1654   -1047.2566    9954.0126    19308.122    3.6034017    26.827488 
   38880    122.50109   -1046.5381    9967.3816    19307.944    3.6034349    26.827406 
   38890    122.52341   -1045.4982    9985.4693    19307.761     3.603469    26.827321 
   38900    122.23638   -1044.0913    10008.543    19307.577    3.6035035    26.827236 
   38910    121.67762   -1042.4091    10035.607    19307.395    3.6035375    26.827151 
   38920    120.91987   -1040.5621    10065.188    19307.219    3.6035702     26.82707 
   38930    120.07223   -1038.6607    10095.517    19307.056    3.6036007    26.826994 
   38940    119.26609   -1036.8224    10124.568    19306.909    3.6036282    26.826926 
   38950    118.63932   -1035.2253     10149.85    19306.784    3.6036515    26.826868 
   38960    118.30962   -1033.9984    10169.352    19306.684    3.6036701    26.826822 
   38970    118.35859   -1033.2009    10181.904    19306.613    3.6036833    26.826789 
   38980    118.81437    -1033.142    10185.091    19306.573    3.6036908    26.826771 
   38990    119.64044   -1033.7761    10179.529    19306.565    3.6036924    26.826767 
   39000    120.74022   -1034.7085    10168.771    19306.587    3.6036883    26.826777 
   39010    121.97945   -1035.7432    10155.347    19306.637    3.6036789      26.8268 
   39020    123.20824   -1036.9618    10139.994    19306.713    3.6036647    26.826836 
   39030     124.2833    -1037.941    10126.893    19306.813    3.6036461    26.826882 
   39040     125.0849   -1038.6329    10117.384    19306.934    3.6036235    26.826938 
   39050    125.52925   -1038.9635    10112.685    19307.075    3.6035972    26.827003 
   39060    125.57395   -1039.0333    10112.433    19307.234    3.6035675    26.827077 
   39070    125.21913   -1038.5802    10118.415    19307.412    3.6035343    26.827159 
   39080    124.50665   -1037.6655    10129.761    19307.609    3.6034974    26.827251 
   39090    123.51708    -1036.452     10144.54    19307.828    3.6034566    26.827352 
   39100    122.36098    -1034.998     10161.28    19308.071    3.6034113    26.827464 
   39110    121.15662   -1033.7443    10175.711     19308.34    3.6033611    26.827589 
   39120    120.01127   -1032.7531    10186.285    19308.637    3.6033056    26.827727 
   39130    118.99814   -1032.0937    10191.672    19308.965    3.6032443    26.827879 
   39140     118.1441   -1031.9944    10189.835    19309.325    3.6031773    26.828045 
   39150    117.43115   -1032.2746    10182.008    19309.714    3.6031046    26.828226 
   39160    116.81749   -1032.9052    10168.757    19310.134    3.6030263     26.82842 
   39170    116.25319   -1033.7746    10151.489     19310.58     3.602943    26.828627 
   39180     115.7034   -1034.7891    10131.641    19311.051    3.6028552    26.828845 
   39190     115.1544   -1036.0051    10109.624    19311.542    3.6027636    26.829072 
   39200    114.61553   -1037.2516    10087.331     19312.05    3.6026688    26.829307 
   39210     114.1139   -1038.2623    10067.124    19312.571    3.6025715    26.829549 
   39220    113.68493   -1039.2913    10047.499    19313.102    3.6024725    26.829795 
   39230     113.3612   -1040.1706    10029.638     19313.64    3.6023723    26.830043 
   39240    113.17464   -1041.0249    10012.503     19314.18    3.6022715    26.830294 
   39250    113.14986    -1041.986    9994.8767    19314.721    3.6021706    26.830544 
   39260    113.30586   -1042.9682    9977.0283     19315.26    3.6020702    26.830793 
   39270    113.65439   -1043.8812    9959.3051    19315.792    3.6019708     26.83104 
   39280    114.19446   -1045.0369    9939.3654    19316.317     3.601873    26.831283 
   39290    114.91317   -1046.3628    9917.7239    19316.829    3.6017775     26.83152 
   39300    115.77688   -1047.7324    9895.4624    19317.326    3.6016848     26.83175 
   39310    116.73531   -1049.0447    9873.6949    19317.804    3.6015957    26.831972 
   39320    117.72177   -1050.4448    9851.9766    19318.259    3.6015109    26.832182 
   39330    118.66447   -1051.7015    9832.5756    19318.688    3.6014309    26.832381 
   39340    119.49373   -1052.8805    9815.6673    19319.087    3.6013565    26.832566 
   39350    120.15577   -1053.8713    9802.5241    19319.454    3.6012881    26.832736 
   39360    120.62047   -1054.3238    9795.8784    19319.787     3.601226     26.83289 
   39370     120.8813   -1054.3106    9795.2916    19320.085    3.6011706    26.833027 
   39380    120.95273    -1054.101    9798.7865    19320.347    3.6011217    26.833149 
   39390    120.85824   -1053.5289    9807.3395    19320.575    3.6010792    26.833254 
   39400    120.62089    -1052.642    9820.4494    19320.769     3.601043    26.833344 
   39410    120.26221   -1051.6503    9836.5396    19320.933    3.6010124     26.83342 
   39420    119.80454   -1050.4134    9856.4938    19321.069    3.6009871    26.833483 
   39430    119.28029   -1048.9442    9880.0872    19321.181    3.6009663    26.833535 
   39440    118.74041   -1047.3722      9906.19    19321.272    3.6009493    26.833577 
   39450    118.25574   -1045.3585    9936.8053    19321.347    3.6009352    26.833612 
   39460    117.91004   -1043.5154    9967.1575    19321.412    3.6009232    26.833642 
   39470    117.79217   -1041.7869    9996.9986    19321.471    3.6009122    26.833669 
   39480    117.97774   -1040.2742    10024.885    19321.529    3.6009014    26.833696 
   39490    118.50456   -1038.9984    10049.871    19321.591    3.6008897    26.833725 
   39500    119.35605   -1037.7874    10072.362    19321.662    3.6008766    26.833758 
   39510     120.4659   -1037.0312    10088.953    19321.745    3.6008612    26.833796 
   39520    121.73571   -1036.7629    10098.946    19321.842     3.600843    26.833841 
   39530     123.0647    -1036.687    10104.256    19321.956    3.6008218    26.833894 
   39540    124.36595   -1037.1897    10102.383    19322.087    3.6007973    26.833955 
   39550    125.57441   -1037.7569    10097.342    19322.236    3.6007697    26.834023 
   39560    126.64441   -1038.3884    10089.691      19322.4    3.6007391    26.834099 
   39570    127.54252   -1038.9663    10080.826    19322.578    3.6007058    26.834182 
   39580    128.24067   -1039.6495     10070.19     19322.77      3.60067    26.834271 
   39590    128.71321   -1040.2598    10059.522    19322.974    3.6006321    26.834365 
   39600    128.94073   -1040.7791    10049.367    19323.186    3.6005925    26.834463 
   39610    128.91316   -1041.3027    10039.376    19323.407    3.6005514    26.834565 
   39620    128.63507   -1041.5033    10032.028    19323.634    3.6005092     26.83467 
   39630    128.12338   -1041.6324    10025.691    19323.865    3.6004661    26.834777 
   39640     127.4017   -1041.5745    10021.259      19324.1    3.6004223    26.834886 
   39650    126.49596   -1041.4787    10017.813    19324.338    3.6003779    26.834997 
   39660    125.43268   -1041.1905    10016.598    19324.579    3.6003331    26.835108 
   39670    124.24272   -1040.7014    10017.867    19324.822    3.6002878     26.83522 
   39680    122.96125   -1040.3752    10019.226    19325.067    3.6002422    26.835334 
   39690    121.63061   -1039.6299    10024.722    19325.314     3.600196    26.835448 
   39700    120.30483   -1038.9901    10030.513    19325.566    3.6001492    26.835565 
   39710    119.04785   -1038.4661    10036.145    19325.821    3.6001016    26.835683 
   39720    117.92759   -1037.9394    10041.932    19326.082     3.600053    26.835804 
   39730    117.00321   -1037.4132    10047.297     19326.35    3.6000032    26.835928 
   39740    116.31774   -1037.0481    10050.661    19326.624     3.599952    26.836055 
   39750    115.88737   -1037.0203    10050.511    19326.906    3.5998995    26.836185 
   39760    115.70383   -1037.3515    10046.663    19327.196    3.5998455    26.836319 
   39770     115.7318    -1037.583    10042.496    19327.493    3.5997901    26.836457 
   39780     115.9182   -1038.1403    10035.399    19327.797    3.5997336    26.836597 
   39790    116.20503   -1038.5326    10029.208    19328.105    3.5996762     26.83674 
   39800    116.54356   -1038.8715    10023.527    19328.418    3.5996179    26.836885 
   39810    116.89677   -1039.4083    10016.858    19328.734    3.5995591    26.837031 
   39820    117.24711   -1039.5371     10013.53    19329.051       3.5995    26.837178 
   39830    117.58991   -1039.6279    10010.953    19329.371    3.5994406    26.837326 
   39840    117.93103   -1039.8685    10007.737    19329.691     3.599381    26.837474 
   39850    118.28201   -1040.0857    10004.952    19330.011    3.5993213    26.837622 
   39860    118.65654   -1040.1341     10003.46    19330.331    3.5992616     26.83777 
   39870    119.07016   -1040.2148    10001.705    19330.652     3.599202    26.837919 
   39880    119.53852   -1040.1861     10000.54    19330.971    3.5991425    26.838066 
   39890    120.06963   -1040.3136     9998.046     19331.29    3.5990832    26.838214 
   39900    120.66011   -1040.2579    9996.6428    19331.607    3.5990241    26.838361 
   39910    121.28951   -1040.5649    9992.7721    19331.923    3.5989652    26.838507 
   39920    121.91145   -1040.8339    9989.6432    19332.237    3.5989068    26.838652 
   39930    122.46265   -1040.8112    9989.6097    19332.549    3.5988488    26.838797 
   39940    122.87189   -1040.5488    9992.9536    19332.858    3.5987913    26.838939 
   39950    123.07553   -1040.1054    9999.8271    19333.164    3.5987342    26.839081 
   39960    123.03616   -1039.4741    10010.633     19333.47    3.5986773    26.839223 
   39970      122.751   -1038.6169    10025.671    19333.777    3.5986201    26.839365 
   39980    122.26083   -1037.2801    10046.392    19334.088    3.5985623    26.839509 
   39990    121.64415   -1035.6735    10070.681    19334.405    3.5985032    26.839656 
   40000    121.01286   -1034.0457    10095.904    19334.734    3.5984421    26.839808 
Loop time of 5.46193 on 1 procs for 20000 steps with 500 atoms

Performance: 316.372 ns/day, 0.076 hours/ns, 3661.711 timesteps/s
91.4% CPU use with 1 MPI tasks x no OpenMP threads

MPI task timing breakdown:
Section |  min time  |  avg time  |  max time  |%varavg| %total
---------------------------------------------------------------
Pair    | 4.6051     | 4.6051     | 4.6051     |   0.0 | 84.31
Neigh   | 0.1179     | 0.1179     | 0.1179     |   0.0 |  2.16
Comm    | 0.17883    | 0.17883    | 0.17883    |   0.0 |  3.27
Output  | 0.023757   | 0.023757   | 0.023757   |   0.0 |  0.43
Modify  | 0.46838    | 0.46838    | 0.46838    |   0.0 |  8.58
Other   |            | 0.06798    |            |       |  1.24

Nlocal:    500 ave 500 max 500 min
Histogram: 1 0 0 0 0 0 0 0 0 0
Nghost:    1431 ave 1431 max 1431 min
Histogram: 1 0 0 0 0 0 0 0 0 0
Neighs:    13496 ave 13496 max 13496 min
Histogram: 1 0 0 0 0 0 0 0 0 0

Total # of neighbors = 13496
Ave neighs/atom = 26.992
Neighbor list builds = 165
Dangerous builds = 0
Total wall time: 0:00:12
