LAMMPS (7 Aug 2019)
Reading data file ...
  orthogonal box = (-1.4719 -1.4719 -1.4719) to (26.4719 26.4719 26.4719)
  1 by 1 by 1 MPI processor grid
  reading atoms ...
  500 atoms
  reading velocities ...
  500 velocities
  read_data CPU = 0.0022409 secs
Neighbor list info ...
  update every 1 steps, delay 10 steps, check yes
  max neighbors/atom: 2000, page size: 100000
  master list distance cutoff = 8
  ghost atom cutoff = 8
  binsize = 4, bins = 7 7 7
  1 neighbor lists, perpetual/occasional/extra = 1 0 0
  (1) pair lj/cut, perpetual
      attributes: half, newton on
      pair build: half/bin/atomonly/newton
      stencil: half/bin/3d/newton
      bin: standard
Setting up Verlet run ...
  Unit style    : real
  Current step  : 0
  Time step     : 1
Per MPI rank memory allocation (min/avg/max) = 3.998 | 3.998 | 3.998 Mbytes
Step Temp PotEng Press Volume Density Lx 
       0   0.94924373   -1315.7856    26.487323    21820.062    3.1885758    27.943791 
      10   0.94789457   -1315.7832    24.853033    21821.159    3.1884154     27.94426 
      20   0.94681199   -1315.7805     20.10252    21824.316    3.1879542    27.945607 
      30   0.94605975   -1315.7767    12.843626     21829.14    3.1872497    27.947666 
      40     0.945719   -1315.7715    4.0004054     21835.03    3.1863899    27.950179 
      50   0.94587707   -1315.7646   -5.3091789    21841.255    3.1854818    27.952835 
      60   0.94660855   -1315.7559   -13.917508    21847.041    3.1846382    27.955303 
      70   0.94794752    -1315.746   -20.753547    21851.673     3.183963    27.957279 
      80   0.94985142   -1315.7354   -24.972908    21854.583    3.1835391     27.95852 
      90   0.95216423   -1315.7247   -26.057577    21855.419    3.1834174    27.958876 
     100   0.95459495   -1315.7138   -23.875826     21854.09     3.183611    27.958309 
     110   0.95673302   -1315.7027   -18.697209    21850.778    3.1840935    27.956897 
     120   0.95811331   -1315.6908   -11.161443    21845.915    3.1848023    27.954823 
     130   0.95831781   -1315.6775   -2.2037041    21840.127    3.1856463    27.952354 
     140   0.95707442   -1315.6626    7.0570275    21834.159     3.186517    27.949808 
     150    0.9543095   -1315.6461    15.455349    21828.779    3.1873024    27.947512 
     160   0.95013649   -1315.6287    21.926824    21824.681    3.1879008    27.945763 
     170   0.94479825   -1315.6107    25.646375    21822.402    3.1882339     27.94479 
     180   0.93859893   -1315.5928    26.138006    21822.247    3.1882564    27.944724 
     190   0.93185247   -1315.5749    23.339038    21824.258    3.1879626    27.945582 
     200   0.92485404   -1315.5569    17.608545    21828.204    3.1873864    27.947266 
     210    0.9178668   -1315.5383    9.6785773    21833.611    3.1865971    27.949574 
     220   0.91111435   -1315.5186   0.55606027    21839.821    3.1856909    27.952224 
     230   0.90477296   -1315.4977   -8.6093057    21846.081    3.1847782    27.954894 
     240   0.89896205   -1315.4757   -16.671796    21851.627    3.1839698    27.957259 
     250   0.89373477   -1315.4534   -22.631459    21855.789    3.1833634    27.959034 
     260   0.88907287   -1315.4311   -25.754146    21858.072    3.1830309    27.960008 
     270   0.88489095   -1315.4094   -25.657328    21858.215    3.1830101    27.960069 
     280   0.88105395   -1315.3881   -22.353972    21856.226    3.1832998     27.95922 
     290   0.87740614    -1315.367   -16.250903    21852.381      3.18386    27.957581 
     300   0.87380428   -1315.3455   -8.1018309    21847.187    3.1846169    27.955366 
     310   0.87014404   -1315.3231    1.0810621    21841.323    3.1854718    27.952864 
     320   0.86637208   -1315.2996      10.1489    21835.552    3.1863138    27.950402 
     330   0.86248288   -1315.2753    17.958531    21830.624     3.187033    27.948299 
     340   0.85850547   -1315.2505    23.518585    21827.187    3.1875349    27.946832 
     350   0.85448672    -1315.226     26.11957      21825.7     3.187752    27.946198 
     360   0.85047674   -1315.2019    25.428873    21826.378     3.187653    27.946487 
     370   0.84651869   -1315.1782    21.535802    21829.164    3.1872462    27.947676 
     380   0.84264375   -1315.1544    14.939336    21833.735    3.1865789    27.949627 
     390   0.83887029   -1315.1301    6.4806166    21839.547     3.185731    27.952106 
     400   0.83520586   -1315.1048   -2.7690007    21845.898    3.1848048    27.954816 
     410   0.83165028   -1315.0784   -11.647161     21852.02    3.1839125    27.957427 
     420   0.82819846   -1315.0513   -19.047219    21857.177    3.1831613    27.959626 
     430   0.82484203   -1315.0241   -24.053619    21860.751    3.1826409     27.96115 
     440   0.82156978   -1314.9972   -26.050634    21862.327    3.1824115    27.961822 
     450   0.81836742   -1314.9708   -24.793779    21861.736    3.1824975     27.96157 
     460   0.81521732   -1314.9449   -20.437725    21859.085    3.1828834     27.96044 
     470   0.81209895   -1314.9189    -13.51851    21854.737    3.1835167    27.958586 
     480   0.80899014   -1314.8923   -4.8914701    21849.268    3.1843135    27.956253 
     490   0.80586924   -1314.8647    4.3698505    21843.395    3.1851697    27.953748 
     500   0.80271758    -1314.836    13.104154    21837.888    3.1859729    27.951399 
     510   0.79952195   -1314.8066    20.207905    21833.471    3.1866175    27.949514 
     520   0.79627642    -1314.777    24.777745     21830.73    3.1870176    27.948344 
     530   0.79298332   -1314.7477    26.229984    21830.045    3.1871176    27.948052 
     540   0.78965306   -1314.7189    24.379154    21831.534    3.1869002    27.948687 
     550   0.78630301   -1314.6903    19.463127    21835.045    3.1863878    27.950185 
     560   0.78295538   -1314.6615    12.110703     21840.17      3.18564    27.952372 
     570   0.77963463   -1314.6321     3.256957    21846.302    3.1847459    27.954988 
     580   0.77636464   -1314.6016   -5.9802281    21852.705    3.1838127    27.957719 
     590   0.77316604   -1314.5703   -14.443977    21858.613    3.1829521    27.960238 
     600    0.7700541   -1314.5384   -21.082805    21863.322    3.1822667    27.962246 
     610   0.76703726   -1314.5067   -25.077817    21866.278    3.1818365    27.963506 
     620   0.76411671   -1314.4756   -25.939027    21867.148    3.1817099    27.963877 
     630   0.76128677   -1314.4452   -23.561779    21865.861    3.1818971    27.963328 
     640   0.75853625   -1314.4152   -18.238577    21862.615    3.1823695    27.961945 
     650   0.75585054   -1314.3851   -10.625429    21857.855    3.1830626    27.959915 
     660   0.75321408   -1314.3543    -1.665414    21852.214    3.1838842     27.95751 
     670    0.7506131   -1314.3226    7.5237796    21846.438     3.184726    27.955046 
     680   0.74803811   -1314.2901    15.787086     21841.29    3.1854767     27.95285 
     690   0.74548596   -1314.2573    22.078286    21837.454    3.1860363    27.951213 
     700   0.74296112   -1314.2246    25.596211     21835.45    3.1863286    27.950359 
     710   0.74047605   -1314.1926    25.891399    21835.571    3.1863111     27.95041 
     720   0.73805058   -1314.1612    22.926752    21837.838    3.1859802    27.951377 
     730   0.73571054   -1314.1302    17.082452    21842.008    3.1853719    27.953156 
     740   0.73348568    -1314.099    9.1043477    21847.597    3.1845572     27.95554 
     750   0.73140727   -1314.0672 0.0041529845    21853.942    3.1836326    27.958246 
     760   0.72950578   -1314.0346   -9.0729751    21860.288    3.1827083    27.960952 
     770   0.72780881   -1314.0015   -16.994205    21865.881    3.1818942    27.963337 
     780   0.72633966   -1313.9684   -22.778815    21870.062     3.181286    27.965119 
     790   0.72511665   -1313.9358    -25.71556    21872.347    3.1809536    27.966093 
     800   0.72415325   -1313.9043   -25.445591    21872.492    3.1809325    27.966155 
     810   0.72345904   -1313.8736    -22.00351     21870.52    3.1812193    27.965314 
     820   0.72304123   -1313.8436   -15.813257    21866.719    3.1817723    27.963694 
     830   0.72290668   -1313.8137    -7.639181    21861.604    3.1825167    27.961514 
     840   0.72306402   -1313.7833    1.5036446    21855.858    3.1833534    27.959063 
     850   0.72352555   -1313.7525    10.471635     21850.24    3.1841719    27.956668 
     860   0.72430876   -1313.7215    18.134564    21845.494    3.1848637    27.954643 
     870    0.7254371   -1313.6909    23.520054    21842.256    3.1853358    27.953262 
     880   0.72693996   -1313.6611    25.941184    21840.971    3.1855233    27.952714 
     890   0.72885797   -1313.5835    25.390746    21841.839    3.1853967    27.953084 
     900   0.73125545   -1313.5562    21.348803    21844.805    3.1849642    27.954349 
     910   0.73413378   -1313.5296    14.621776    21849.543    3.1842734     27.95637 
     920   0.73754066   -1313.4788    6.2143557    21855.498    3.1834058     27.95891 
     930   0.74150713   -1313.4278   -2.9574202    21861.969    3.1824635    27.961669 
     940   0.74605378   -1313.4013   -11.890121    21868.192     3.181558    27.964322 
     950   0.75119343   -1313.3749   -19.326366    21873.426    3.1807967    27.966553 
     960   0.75693692   -1313.3494   -24.348117    21877.051    3.1802696    27.968098 
     970   0.76328544   -1313.3251   -26.339411    21878.649    3.1800373    27.968779 
     980   0.77023045   -1313.3023   -25.057585    21878.054    3.1801238    27.968525 
     990   0.77775428    -1313.281   -20.660848    21875.373    3.1805135    27.967383 
    1000   0.78583122   -1313.2606   -13.690059    21870.975    3.1811531    27.965508 
    1010   0.79442905   -1313.2405   -5.0061726     21865.44    3.1819584    27.963149 
    1020    0.8035109   -1313.2203    4.3113844    21859.492    3.1828241    27.960613 
    1030   0.81303926   -1313.1754    13.246793    21853.907    3.1836376    27.958231 
    1040   0.82298244   -1313.1798    20.225904     21849.42    3.1842913    27.956318 
    1050   0.83329545   -1313.1605    24.800676    21846.621    3.1846993    27.955124 
    1060   0.84393676   -1313.1423    26.245278    21845.882    3.1848071    27.954809 
    1070   0.85487206   -1313.1255     24.37597    21847.322    3.1845972    27.955423 
    1080    0.8660704   -1313.1098    19.433247    21850.786    3.1840923    27.956901 
    1090   0.87750391   -1313.0946    12.049026    21855.864    3.1833525    27.959066 
    1100   0.88915061   -1313.0551    3.3087458    21861.946    3.1824669    27.961659 
    1110    0.9009816   -1313.0398   -5.9824155    21868.303    3.1815418    27.964369 
    1120   0.91298402   -1312.9754   -14.217242    21874.167    3.1806889    27.966869 
    1130   0.92512189   -1312.9604   -20.968298    21878.846    3.1800087    27.968862 
    1140   0.93734655   -1312.9463   -25.105213    21881.778    3.1795825    27.970112 
    1150   0.94962087   -1312.9335   -26.121943     21882.62    3.1794602    27.970471 
    1160   0.96193693   -1312.9715   -24.181333    21881.275    3.1796557    27.969897 
    1170   0.97422402   -1312.9371   -18.785633    21877.918    3.1801436    27.968467 
    1180   0.98643503   -1312.9036   -11.052443        21873    3.1808586    27.966371 
    1190   0.99850846   -1312.8949   -2.0883677    21867.166    3.1817073    27.963884 
    1200    1.0103679   -1312.8864    7.1390004    21861.161    3.1825812    27.961325 
    1210    1.0219466   -1312.8781    15.470448    21855.755    3.1833685    27.959019 
    1220    1.0331823   -1312.8705    21.851539    21851.636    3.1839684    27.957263 
    1230    1.0439842   -1312.8643    25.469868    21849.335    3.1843038    27.956282 
    1240    1.0542777   -1312.8598    25.862775     21849.15    3.1843308    27.956203 
    1250    1.0639866   -1312.8572    22.979812    21851.112    3.1840448     27.95704 
    1260    1.0730316   -1312.8563    17.189459    21854.983    3.1834808    27.958691 
    1270    1.0813301   -1312.8566    9.2291031    21860.283    3.1827091     27.96095 
    1280     1.088797   -1312.8331   0.25565247     21866.35    3.1818259    27.963537 
    1290    1.0953399   -1312.8102   -8.7501198    21872.437    3.1809404    27.966131 
    1300    1.1008742   -1312.8129   -16.813057    21877.792    3.1801619    27.968413 
    1310    1.1052876    -1312.817   -22.791815    21881.746    3.1795873    27.970098 
    1320    1.1084975   -1312.8233   -25.952466    21883.801    3.1792886    27.970974 
    1330    1.1104437   -1312.8565   -26.060543    21883.695    3.1793041    27.970928 
    1340    1.1111187   -1312.8678   -22.810538    21881.424    3.1796341    27.969961 
    1350    1.1105558   -1312.9304   -17.040503     21877.25    3.1802406    27.968182 
    1360     1.108853   -1312.9455   -8.8673173    21871.665    3.1810528    27.965802 
    1370    1.1061568   -1313.0355 -0.049593592    21865.342    3.1819726    27.963107 
    1380    1.1027156   -1313.0528    9.2020914    21859.029    3.1828916    27.960416 
    1390    1.0987623   -1313.0957    17.134378    21853.485    3.1836991    27.958052 
    1400    1.0946001   -1313.1155    23.037729    21849.374    3.1842981    27.956298 
    1410    1.0904986   -1313.1374    26.019399    21847.178    3.1846182    27.955362 
    1420    1.0867064   -1313.1617    25.700318    21847.143    3.1846233    27.955347 
    1430    1.0834239   -1313.1636    22.269665    21849.246    3.1843168    27.956244 
    1440     1.080794   -1313.1919    15.871954    21853.197    3.1837411    27.957929 
    1450      1.07891   -1313.2213    7.4745662    21858.466    3.1829736    27.960176 
    1460    1.0778199   -1313.2515    -1.858313    21864.356    3.1821161    27.962687 
    1470    1.0775335   -1313.2821   -10.953506    21870.092    3.1812816    27.965132 
    1480    1.0780305   -1313.3135   -18.677212    21874.916      3.18058    27.967188 
    1490    1.0792666   -1313.3461   -24.073931    21878.184    3.1801049     27.96858 
    1500     1.081178   -1313.3804   -26.480024    21879.448    3.1799212    27.969119 
    1510    1.0836854   -1313.4165   -25.600645    21878.507     3.180058    27.968718 
    1520    1.0867075    -1313.479   -21.687806    21875.431    3.1805051    27.967407 
    1530    1.0901361    -1313.518   -14.925787    21870.553    3.1812145    27.965328 
    1540    1.0938597   -1313.5574   -6.2987481    21864.437    3.1821043    27.962721 
    1550    1.0977826   -1313.5723    3.2674796    21857.808    3.1830695    27.959895 
    1560    1.1017983    -1313.636    12.138478    21851.449    3.1839957    27.957183 
    1570    1.1057959   -1313.6997    19.497131    21846.099    3.1847755    27.954901 
    1580    1.1096605   -1313.7391    24.554708    21842.371    3.1853191    27.953311 
    1590    1.1133028   -1313.7794    26.516232    21840.683    3.1855652    27.952591 
    1600    1.1166546   -1313.8205    25.132561    21841.196    3.1854904     27.95281 
    1610    1.1196677   -1313.8623    20.583031    21843.795    3.1851114    27.953919 
    1620     1.122314   -1313.9043    13.450942    21848.101    3.1844836    27.955756 
    1630    1.1245849   -1313.9458    4.6448335    21853.524    3.1836933    27.958068 
    1640    1.1264887   -1313.9864   -4.7218827    21859.333    3.1828474    27.960545 
    1650    1.1280466   -1314.0261   -13.474706    21864.748     3.182059    27.962854 
    1660    1.1292881   -1314.0653   -20.525196    21869.043    3.1814342    27.964685 
    1670    1.1302461   -1314.1045   -25.003086    21871.629     3.181058    27.965787 
    1680    1.1309521   -1314.1442   -26.358889    21872.135    3.1809845    27.966002 
    1690    1.1314327   -1314.1846   -24.427243    21870.447    3.1812298    27.965283 
    1700    1.1317067   -1314.2254   -19.445674     21866.73    3.1817707    27.963699 
    1710    1.1317841    -1314.266   -12.027331    21861.399    3.1825466    27.961426 
    1720    1.1316663   -1314.3058   -3.0898437    21855.073    3.1834678    27.958729 
    1730    1.1313477   -1314.3446    6.2535818    21848.496    3.1844261    27.955924 
    1740    1.1308182   -1314.3822    14.830178    21842.444    3.1853084    27.953342 
    1750    1.1300669   -1314.4192    21.555437    21837.628    3.1860109    27.951288 
    1760    1.1290852    -1314.456    25.573822    21834.603    3.1864523    27.949997 
    1770    1.1278705   -1314.4931    26.372423    21833.701     3.186584    27.949612 
    1780    1.1264282   -1314.5306     23.85014    21834.986    3.1863964     27.95016 
    1790    1.1247733   -1314.5681    18.331307    21838.248    3.1859204    27.951552 
    1800    1.1229303   -1314.6053    10.521533    21843.031    3.1852228    27.953593 
    1810     1.120932   -1314.6414    1.4129616    21848.687    3.1843983    27.956005 
    1820     1.118825    -1314.701   -7.9962994    21854.458    3.1835574    27.958466 
    1830    1.1166595   -1314.7351   -16.232597    21859.567    3.1828134    27.960645 
    1840    1.1144591   -1314.7688   -22.421994    21863.325    3.1822662    27.962247 
    1850    1.1122561   -1314.8025   -25.802459    21865.219    3.1819906    27.963054 
    1860    1.1100745   -1314.8368   -25.960216    21864.967    3.1820273    27.962947 
    1870    1.1079267   -1314.8716   -22.877164    21862.557     3.182378     27.96192 
    1880    1.1058129   -1314.9066   -16.932791    21858.248    3.1830053    27.960083 
    1890    1.1037211   -1314.9412   -8.8604678    21852.536    3.1838373    27.957647 
    1900    1.1016282   -1314.9748     0.338354    21846.094    3.1847762    27.954899 
    1910     1.099503   -1315.0072    9.5142883    21839.686    3.1857106    27.952166 
    1920    1.0973094   -1315.0386    17.512134    21834.073    3.1865296    27.949771 
    1930      1.09501   -1315.0694    23.318149    21829.917    3.1871362    27.947998 
    1940    1.0925705   -1315.1001    26.192844    21827.697    3.1874604     27.94705 
    1950    1.0899629    -1315.131    25.769875    21827.649    3.1874674     27.94703 
    1960    1.0871677    -1315.162    22.105571    21829.737    3.1871626    27.947921 
    1970    1.0841754   -1315.1927     15.67109    21833.656    3.1865904    27.949593 
    1980    1.0809866   -1315.2225    7.2885045    21838.874    3.1858291    27.951819 
    1990    1.0776097    -1315.251   -1.9788769    21844.696      3.18498    27.954303 
    2000     1.074059    -1315.278   -10.965037    21850.352    3.1841556    27.956716 
    2010    1.0703511   -1315.3038   -18.548794    21855.097    3.1834643    27.958739 
    2020    1.0665013   -1315.3289   -23.791263    21858.299    3.1829979    27.960104 
    2030      1.06252   -1315.3538   -26.047547    21859.524    3.1828196    27.960626 
    2040    1.0584108   -1315.3788   -25.041571    21858.584    3.1829565    27.960226 
    2050    1.0541682   -1315.4036   -20.897552    21855.564    3.1833962    27.958938 
    2060    1.0497783   -1315.4278   -14.125624    21850.812    3.1840885    27.956912 
    2070    1.0452196   -1315.4507   -5.5627558    21844.892    3.1849514    27.954387 
    2080    1.0404655   -1315.4719    3.7260497    21838.516    3.1858813    27.951667 
    2090    1.0354885   -1315.4913    12.576951    21832.456    3.1867657    27.949081 
    2100    1.0302634    -1315.509    19.872821    21827.444    3.1874974    27.946942 
    2110    1.0247724   -1315.5257    24.687154    21824.083    3.1879883    27.945507 
    2120    1.0190079   -1315.5417    26.406413     21822.77    3.1881801    27.944947 
    2130    1.0129759   -1315.5572    24.812476    21823.645    3.1880523     27.94532 
    2140    1.0066968    -1315.572    20.112077    21826.575    3.1876243    27.946571 
    2150    1.0002055   -1315.5856    12.908476    21831.171    3.1869532    27.948533 
    2160   0.99354986   -1315.5975    4.1199911    21836.836    3.1861264     27.95095 
    2170   0.98678759   -1315.6074   -5.1416196    21842.841    3.1852504    27.953512 
    2180   0.97998316   -1315.6152    -13.71463    21848.419    3.1844374    27.955891 
    2190   0.97320398   -1315.6215   -20.532768    21852.856    3.1837908    27.957783 
    2200   0.96651716   -1315.6267   -24.754551    21855.586    3.1833931    27.958947 
    2210   0.95998699   -1315.6315   -25.862449    21856.259     3.183295    27.959234 
    2220   0.95367357   -1315.6358   -23.722498    21854.784    3.1835099    27.958605 
    2230    0.9476326   -1315.6395   -18.599384     21851.34    3.1840116    27.957137 
    2240   0.94191642    -1315.642   -11.125831    21846.356    3.1847381    27.955011 
    2250   0.93657587   -1315.6429   -2.2287933    21840.453    3.1855987    27.952493 
    2260    0.9316627   -1315.6418    6.9810783    21834.372     3.186486    27.949899 
    2270   0.92723185   -1315.6388    15.345703    21828.876    3.1872882    27.947553 
    2280   0.92334302   -1315.6343    21.806009    21824.657    3.1879044    27.945753 
    2290   0.92006078    -1315.629    25.539651    21822.248    3.1882563    27.944724 
    2300   0.91745269   -1315.6232    26.070333    21821.957    3.1882989      27.9446 
    2310   0.91558497    -1315.617     23.33197    21823.825     3.188026    27.945397 
    2320   0.91451555   -1315.6101    17.677403    21827.625     3.187471    27.947019 
    2330    0.9142852   -1315.6021     9.830246    21832.888    3.1867025    27.949265 
    2340   0.91490757   -1315.5925   0.78773144    21838.965    3.1858158    27.951858 
    2350   0.91636016   -1315.5811   -8.3102694    21845.106    3.1849202    27.954478 
    2360   0.91857834   -1315.5681   -16.326826    21850.555     3.184126    27.956802 
    2370   0.92145443    -1315.554   -22.268675    21854.646    3.1835299    27.958547 
    2380   0.92484285   -1315.5395   -25.405389    21856.886    3.1832037    27.959502 
    2390   0.92857071   -1315.5248   -25.354639    21857.014     3.183185    27.959557 
    2400   0.93245171     -1315.51   -22.125857    21855.037     3.183473    27.958713 
    2410   0.93630044   -1315.4947   -16.118799    21851.224    3.1840285    27.957087 
    2420    0.9399448   -1315.4784   -8.0771601    21846.077    3.1847786    27.954892 
    2430   0.94323501   -1315.4605   0.99885485    21840.266    3.1856261    27.952413 
    2440   0.94604933   -1315.4411    9.9730105    21834.544    3.1864609    27.949972 
    2450   0.94829673   -1315.4201    17.713936    21829.654    3.1871746    27.947885 
    2460   0.94991745   -1315.3982    23.239612    21826.238    3.1876735    27.946427 
    2470   0.95088182   -1315.3759    25.846069     21824.75    3.1878909    27.945792 
    2480    0.9511878   -1315.3535    25.201419    21825.404    3.1877953    27.946071 
    2490   0.95085725    -1315.331    21.390534    21828.146    3.1873949    27.947241 
    2500   0.94993129   -1315.3079    14.903176    21832.659     3.186736    27.949167 
    2510    0.9484649   -1315.2838    6.5675395    21838.406    3.1858974     27.95162 
    2520    0.9465211   -1315.2583   -2.5601064    21844.695    3.1849801    27.954303 
    2530   0.94416532   -1315.2314   -11.332785     21850.77    3.1840946    27.956894 
    2540   0.94146025   -1315.2034    -18.65765    21855.902     3.183347    27.959082 
    2550   0.93846166    -1315.175   -23.629701    21859.481    3.1828258    27.960608 
    2560   0.93521557   -1315.1466   -25.639242    21861.095    3.1825908    27.961297 
    2570   0.93175684   -1315.1185   -24.442471    21860.578    3.1826661    27.961076 
    2580    0.9281093   -1315.0906   -20.189094     21858.03     3.183037     27.95999 
    2590   0.92428713   -1315.0624   -13.404813    21853.809     3.183652     27.95819 
    2600   0.92029736   -1315.0334   -4.9301376    21848.478    3.1844286    27.955916 
    2610   0.91614296   -1315.0032    4.1792221    21842.745    3.1852645    27.953471 
    2620    0.9118261   -1314.9719    12.780782    21837.365    3.1860492    27.951176 
    2630   0.90735118   -1314.9397    19.788425    21833.051    3.1866788    27.949335 
    2640   0.90272704   -1314.9071    24.312393    21830.381    3.1870685    27.948196 
    2650   0.89796827   -1314.8747    25.776698    21829.729    3.1871637    27.947917 
    2660   0.89309529   -1314.8427    23.996318    21831.214     3.186947    27.948551 
    2670   0.88813333   -1314.8107    19.201966    21834.686    3.1864401    27.950033 
    2680   0.88311057   -1314.7785    12.008427     21839.75    3.1857014    27.952193 
    2690   0.87805558   -1314.7455    3.3316604    21845.807     3.184818    27.954777 
    2700    0.8729947   -1314.7115   -5.7322335    21852.138    3.1838953    27.957477 
    2710   0.86794961   -1314.6765   -14.048085    21857.991    3.1830428    27.959973 
    2720   0.86293552   -1314.6409   -20.583377    21862.673    3.1823611    27.961969 
    2730   0.85796015   -1314.6054    -24.53317    21865.642     3.181929    27.963235 
    2740   0.85302382   -1314.5704   -25.414756    21866.569     3.181794     27.96363 
    2750   0.84812044   -1314.5359   -23.123103    21865.384    3.1819666    27.963125 
    2760   0.84323951   -1314.5019   -17.942494    21862.277    3.1824187      27.9618 
    2770   0.83836873   -1314.4676   -10.513489    21857.683    3.1830876    27.959842 
    2780   0.83349699   -1314.4327   -1.7579574    21852.221    3.1838832    27.957513 
    2790   0.82861739    -1314.397    7.2311172     21846.62    3.1846995    27.955124 
    2800   0.82372988   -1314.3604    15.323938    21841.626    3.1854277    27.952993 
    2810   0.81884323   -1314.3235    21.496837    21837.908    3.1859701    27.951407 
    2820   0.81397594   -1314.2868    24.965299    21835.976    3.1862519    27.950583 
    2830   0.80915618   -1314.2507    25.288063    21836.117    3.1862314    27.950643 
    2840    0.8044206   -1314.2154    22.426331    21838.354    3.1859049    27.951598 
    2850   0.79981231   -1314.1804     16.74866     21842.45    3.1853075    27.953345 
    2860   0.79537826   -1314.1454     8.980752    21847.934     3.184508    27.955684 
    2870   0.79116638     -1314.11   0.10828649     21854.16    3.1836007    27.958339 
    2880   0.78722295   -1314.0741   -8.7521291    21860.392    3.1826931    27.960997 
    2890   0.78359041   -1314.0378   -16.495116    21865.894    3.1818924    27.963342 
    2900   0.78030859   -1313.9772   -22.012379    21870.021    3.1812919    27.965102 
    2910   0.77741112   -1313.9419   -24.923743    21872.311    3.1809588    27.966078 
    2920   0.77493894   -1313.8833    -24.58511    21872.531    3.1809268    27.966171 
    2930   0.77289009   -1313.8504   -21.337161    21870.706    3.1811922    27.965394 
    2940   0.77127774   -1313.8183   -15.431283    21867.109    3.1817156     27.96386 
    2950   0.77011885   -1313.7867   -7.5987175    21862.233    3.1824252    27.961782 
    2960   0.76943138    -1313.755    1.1866337    21856.731    3.1832262    27.959436 
    2970   0.76925505   -1313.7233    9.8189814     21851.34    3.1840117    27.957137 
    2980   0.76960162   -1313.6918    17.211241    21846.774    3.1846771    27.955189 
    2990   0.77049378   -1313.6609    22.433886    21843.641    3.1851338    27.953853 
    3000   0.77198246   -1313.6066    24.972412    21842.375    3.1853185    27.953313 
    3010   0.77412092   -1313.5539    24.355335    21843.182    3.1852008    27.953657 
    3020   0.77691638   -1313.5273    20.515298    21846.007    3.1847889    27.954862 
    3030   0.78039039   -1313.5017    14.094796    21850.534    3.1841291    27.956793 
    3040   0.78457529   -1313.4768    5.9122619    21856.227    3.1832996    27.959221 
    3050   0.78949877   -1313.4521   -2.9971388    21862.409    3.1823995    27.961857 
    3060   0.79518201   -1313.4277   -11.515729    21868.338    3.1815367    27.964384 
    3070   0.80163816   -1313.4039   -18.584078    21873.306    3.1808141    27.966502 
    3080   0.80887131   -1313.3811    -23.33035    21876.724    3.1803171    27.967958 
    3090   0.81687637   -1313.3355   -25.022538    21878.199    3.1801028    27.968587 
    3100   0.82564296   -1313.3162   -23.750446    21877.584    3.1801922    27.968325 
    3110   0.83513825   -1313.2986   -19.530599    21874.993    3.1805688    27.967221 
    3120   0.84533749   -1313.2576   -12.734592    21870.782    3.1811812    27.965426 
    3130   0.85620552   -1313.2665   -4.6520943    21865.514    3.1819477     27.96318 
    3140   0.86768468   -1313.2513     4.154344    21859.869    3.1827693    27.960774 
    3150   0.87972806   -1313.2364    12.435514    21854.577      3.18354    27.958517 
    3160   0.89228413   -1313.2221    19.147172    21850.324    3.1841597    27.956703 
    3170   0.90529982    -1313.209    23.438593    21847.666    3.1845471     27.95557 
    3180   0.91872131   -1313.1975    24.764527    21846.955    3.1846506    27.955267 
    3190   0.93249425   -1313.1877    22.957989    21848.301    3.1844544    27.955841 
    3200   0.94661012   -1313.1795     18.25372    21851.551    3.1839808    27.957227 
    3210   0.96098356   -1313.1479    11.403196    21856.314    3.1832869    27.959258 
    3220   0.97555136   -1313.1415    2.9799168    21862.018    3.1824564     27.96169 
    3230   0.99022606   -1313.1356   -5.8082272    21867.967    3.1815908    27.964226 
    3240    1.0049346   -1313.1056   -13.711818    21873.428    3.1807964    27.966553 
    3250    1.0196433   -1313.0767   -19.896747     21877.74    3.1801694    27.968391 
    3260     1.034213   -1313.0739   -23.757823    21880.391    3.1797841    27.969521 
    3270    1.0485041    -1313.073   -24.676316    21881.063    3.1796865    27.969807 
    3280    1.0623818   -1313.0742   -22.544139     21879.68    3.1798875    27.969218 
    3290    1.0756916   -1313.0773   -17.627361    21876.422     3.180361     27.96783 
    3300    1.0882589   -1313.0819   -10.535176    21871.702    3.1810474    27.965818 
    3310    1.0998894   -1313.0875   -2.1484925    21866.112    3.1818605    27.963435 
    3320     1.110381    -1313.094    6.4853778    21860.352    3.1826991    27.960979 
    3330      1.11955   -1313.1015    14.281199    21855.137    3.1834584    27.958756 
    3340    1.1271338   -1313.1103    20.253496    21851.116    3.1840443    27.957041 
    3350    1.1329473   -1313.1456    23.493296     21848.78    3.1843847    27.956045 
    3360    1.1368816   -1313.1587    23.891154    21848.395    3.1844408    27.955881 
    3370    1.1388193   -1313.1741    21.247445    21849.993    3.1842079    27.956562 
    3380    1.1387935   -1313.1916    15.900298    21853.353    3.1837182    27.957995 
    3390    1.1369841   -1313.2108    8.5327558    21858.032    3.1830368     27.95999 
    3400    1.1337149   -1313.2312  0.079769661    21863.416     3.182253    27.962286 
    3410    1.1294366   -1313.2282   -8.2482214    21868.806    3.1814686    27.964584 
    3420    1.1246374   -1313.2511   -15.706959    21873.506     3.180785    27.966587 
    3430    1.1198046   -1313.2757    -21.22079    21876.895    3.1802922    27.968031 
    3440    1.1153606   -1313.3025   -24.110517    21878.516    3.1800566    27.968722 
    3450    1.1116231   -1313.3317   -24.022245    21878.129    3.1801129    27.968557 
    3460     1.108803   -1313.3879   -21.118973    21875.744    3.1804597     27.96754 
    3470    1.1070389   -1313.4462   -15.613949    21871.609    3.1810609    27.965778 
    3480    1.1063244   -1313.5059   -8.1834979    21866.184    3.1818501    27.963466 
    3490     1.106589    -1313.542   0.40488816    21860.088    3.1827375    27.960867 
    3500     1.107763   -1313.6279    8.6373351    21854.028      3.18362    27.958283 
    3510    1.1096962   -1313.6899    15.930209     21848.69    3.1843978    27.956007 
    3520    1.1121991   -1313.7282    21.358445    21844.682    3.1849821    27.954297 
    3530    1.1150964   -1313.7923    23.933037    21842.451    3.1853074    27.953345 
    3540    1.1182538   -1313.8331    23.623923    21842.214    3.1853419    27.953244 
    3550    1.1214654   -1313.8751    20.333707    21843.937    3.1850906    27.953979 
    3560     1.124578   -1313.9175    14.488047    21847.346    3.1845936    27.955434 
    3570    1.1274729   -1313.9844    6.6861107    21851.954    3.1839221    27.957399 
    3580    1.1300427   -1314.0261   -1.7835612    21857.115    3.1831703      27.9596 
    3590    1.1321796    -1314.067    -10.00254    21862.125    3.1824409    27.961735 
    3600    1.1338121    -1314.107   -16.944072    21866.299    3.1818334    27.963515 
    3610    1.1348851   -1314.1465   -21.747464    21869.061    3.1814315    27.964692 
    3620    1.1353553   -1314.1859   -23.820781    21870.013     3.181293    27.965098 
    3630    1.1351875    -1314.225   -22.909817    21868.984    3.1814428    27.964659 
    3640    1.1343515   -1314.2639    -19.12714    21866.051    3.1818694    27.963409 
    3650    1.1328201   -1314.3018   -12.938811    21861.534    3.1825269    27.961484 
    3660    1.1305688   -1314.3383   -5.1099245    21855.948    3.1833403    27.959102 
    3670    1.1275769   -1314.3729    3.3862309    21849.946    3.1842147    27.956542 
    3680    1.1238305   -1314.4054    11.486544    21844.235    3.1850472    27.954106 
    3690    1.1193247    -1314.436    18.170961    21839.486    3.1857399     27.95208 
    3700     1.114068   -1314.4651     22.59342    21836.249     3.186212      27.9507 
    3710    1.1080845   -1314.4931    24.192916    21834.891    3.1864102     27.95012 
    3720    1.1014163   -1314.5202    22.768243     21835.54    3.1863155    27.950397 
    3730    1.0941232   -1314.5461    18.504805    21838.077    3.1859454    27.951479 
    3740    1.0862822   -1314.5705    11.949221    21842.146    3.1853519    27.953215 
    3750    1.0779848   -1314.5931    3.9358449    21847.203    3.1846146    27.955372 
    3760    1.0693325   -1314.6136   -4.5232944    21852.583    3.1838305    27.957667 
    3770     1.060433    -1314.632   -12.368767    21857.583    3.1831022    27.959799 
    3780    1.0513952   -1314.6488   -18.626306    21861.552    3.1825243    27.961491 
    3790    1.0423249   -1314.6647   -22.525193    21863.969    3.1821724    27.962522 
    3800    1.0333219   -1314.6799   -23.589408    21864.513    3.1820933    27.962754 
    3810    1.0244774   -1314.6948   -21.692671    21863.096    3.1822996    27.962149 
    3820    1.0158732   -1314.7092   -17.072582    21859.878    3.1827679    27.960778 
    3830    1.0075822   -1314.7227    -10.30275    21855.248    3.1834422    27.958803 
    3840   0.99966934   -1314.7351   -2.2253033     21849.77    3.1842405    27.956467 
    3850   0.99219387   -1314.7461    6.1500315    21844.115    3.1850647    27.954055 
    3860   0.98521129   -1314.7558    13.769994    21838.979    3.1858137    27.951864 
    3870   0.97877563   -1314.7648    19.670747    21834.993    3.1863953    27.950164 
    3880   0.97294113   -1314.7735    23.102625    21832.643    3.1867383    27.949161 
    3890   0.96776316   -1314.7823    23.629089    21832.211    3.1868014    27.948976 
    3900   0.96329837   -1314.7915    21.184969    21833.738    3.1865785    27.949628 
    3910   0.95960384   -1314.8007    16.084861     21837.02    3.1860996    27.951028 
    3920   0.95673533   -1314.8098    8.9803527    21841.632    3.1854268    27.952996 
    3930   0.95474481   -1314.8182    0.7729484    21846.985    3.1846463     27.95528 
    3940   0.95367735    -1314.826   -7.5039069    21852.398    3.1838574    27.957588 
    3950   0.95356775   -1314.8334   -14.816602    21857.183    3.1831604    27.959629 
    3960   0.95443696   -1314.8407   -20.259405    21860.733    3.1826435    27.961142 
    3970   0.95628872   -1314.8486   -23.163481    21862.596    3.1823723    27.961936 
    3980   0.95910655   -1314.8573   -23.175378    21862.533    3.1823815    27.961909 
    3990   0.96285135   -1314.8668   -20.297618    21860.544     3.182671    27.961062 
    4000   0.96745997   -1314.8769    -14.88796    21856.873    3.1832057    27.959496 
    4010   0.97284473   -1314.8871   -7.6174756     21851.97    3.1839197    27.957406 
    4020   0.97889431   -1314.8969   0.60889717    21846.444    3.1847252    27.955049 
    4030   0.98547583   -1314.9064    8.7617459    21840.977    3.1855224    27.952716 
    4040   0.99243822   -1314.9154     15.81488    21836.245    3.1862127    27.950698 
    4050   0.99961672   -1314.9245    20.876022    21832.831    3.1867108    27.949241 
    4060     1.006838    -1314.934    23.303102    21831.153    3.1869559    27.948525 
    4070    1.0139258   -1314.9442    22.789356    21831.408    3.1869187    27.948634 
    4080    1.0207065   -1314.9549    19.404178    21833.551    3.1866059    27.949548 
    4090     1.027014   -1314.9657    13.583308      21837.3    3.1860587    27.951148 
    4100    1.0326948   -1314.9762    6.0699567    21842.172     3.185348    27.953226 
    4110    1.0376116   -1314.9861   -2.1838168    21847.543     3.184565    27.955517 
    4120    1.0416463   -1314.9953     -10.1406    21852.728    3.1838094    27.957729 
    4130    1.0447032   -1315.0039   -16.808587    21857.066    3.1831775    27.959579 
    4140    1.0467115   -1315.0124   -21.363205    21860.003    3.1827498    27.960831 
    4150    1.0476274   -1315.0213   -23.245468    21861.163    3.1825809    27.961325 
    4160    1.0474358   -1315.0306   -22.227088     21860.39    3.1826934    27.960996 
    4170     1.046152   -1315.0402   -18.436452    21857.773    3.1830745     27.95988 
    4180    1.0438215   -1315.0498   -12.343334    21853.629    3.1836781    27.958113 
    4190    1.0405185   -1315.0589   -4.7036805    21848.467    3.1844303    27.955912 
    4200    1.0363427   -1315.0671    3.5305183    21842.924    3.1852385    27.953547 
    4210    1.0314149   -1315.0744    11.327371    21837.682     3.186003    27.951311 
    4220    1.0258705    -1315.081    17.704298    21833.388    3.1866295    27.949479 
    4230    1.0198534   -1315.0873    21.854216    21830.569    3.1870412    27.948275 
    4240    1.0135103   -1315.0938    23.251397    21829.564    3.1871879    27.947847 
    4250    1.0069853   -1315.1005    21.721332    21830.487    3.1870531    27.948241 
    4260    1.0004163   -1315.1073    17.463807    21833.209    3.1866557    27.949402 
    4270   0.99393207   -1315.1139    11.025539    21837.376    3.1860477     27.95118 
    4280   0.98765022   -1315.1197    3.2267806    21842.452    3.1853072    27.953346 
    4290   0.98167583   -1315.1247   -4.9466869    21847.791    3.1845288    27.955623 
    4300   0.97610042   -1315.1288   -12.470246    21852.715    3.1838113    27.957723 
    4310   0.97100116   -1315.1324   -18.408507    21856.598    3.1832456    27.959379 
    4320   0.96644041   -1315.1359   -22.028926    21858.948    3.1829034    27.960381 
    4330   0.96246564   -1315.1396    -22.88847    21859.466     3.182828    27.960602 
    4340    0.9591098   -1315.1438   -20.884877    21858.082    3.1830295    27.960012 
    4350   0.95639216    -1315.148   -16.268004    21854.967    3.1834833    27.958683 
    4360   0.95431965    -1315.152   -9.6103901    21850.506    3.1841332    27.956781 
    4370   0.95288861   -1315.1552   -1.7396094    21845.255    3.1848985    27.954542 
    4380   0.95208682   -1315.1574    6.3612406    21839.869    3.1856839    27.952244 
    4390   0.95189553   -1315.1586    13.674636     21835.02    3.1863914    27.950175 
    4400   0.95229138   -1315.1592    19.277235    21831.313    3.1869325    27.948593 
    4410   0.95324778   -1315.1595    22.459384    21829.209    3.1872397    27.947695 
    4420   0.95473569   -1315.1598    22.818657    21828.968    3.1872748    27.947592 
    4430   0.95672361   -1315.1602    20.313359    21830.619    3.1870338    27.948297 
    4440   0.95917684   -1315.1603     15.26765    21833.951    3.1865475    27.949719 
    4450   0.96205606   -1315.1598    8.3275137    21838.544    3.1858772    27.951679 
    4460   0.96531562   -1315.1582   0.37458116    21843.824    3.1851072    27.953931 
    4470   0.96890187   -1315.1555   -7.5890288    21849.129    3.1843339    27.956194 
    4480    0.9727519   -1315.1518   -14.568282    21853.798    3.1836535    27.958185 
    4490   0.97679311   -1315.1474    -19.69837    21857.253    3.1831503    27.959658 
    4500   0.98094372   -1315.1429   -22.348772    21859.068     3.182886    27.960432 
    4510    0.9851145   -1315.1384   -22.197262    21859.024    3.1828923    27.960414 
    4520   0.98921143    -1315.134   -19.266881    21857.138     3.183167    27.959609 
    4530   0.99313927   -1315.1293   -13.922743    21853.655    3.1836743    27.958124 
    4540    0.9968057    -1315.124   -6.8290013    21849.023    3.1843493    27.956148 
    4550    1.0001257   -1315.1177    1.1301244    21843.832     3.185106    27.953934 
    4560    1.0030259   -1315.1104    8.9576129    21838.745     3.185848    27.951764 
    4570    1.0054482    -1315.102    15.667603    21834.409    3.1864806    27.949914 
    4580     1.007353   -1315.0932    20.411069    21831.379    3.1869229    27.948621 
    4590     1.008721   -1315.0843    22.586428    21830.045    3.1871176    27.948052 
    4600    1.0095538   -1315.0755    21.919112    21830.585    3.1870388    27.948282 
    4610    1.0098729   -1315.0668    18.497957     21832.94     3.186695    27.949288 
    4620    1.0097181    -1315.058    12.762731    21836.826    3.1861279    27.950945 
    4630    1.0091436   -1315.0487    5.4448302    21841.765    3.1854074    27.953053 
    4640    1.0082145   -1315.0387   -2.5295598     21847.15    3.1846222     27.95535 
    4650    1.0070018   -1315.0279   -10.159335     21852.32    3.1838689    27.957555 
    4660    1.0055787   -1315.0167   -16.494634     21856.64    3.1832396    27.959397 
    4670    1.0040157   -1315.0055   -20.753202    21859.584    3.1828107    27.960652 
    4680    1.0023783   -1314.9948   -22.413668    21860.802    3.1826335    27.961172 
    4690    1.0007236   -1314.9847    -21.27628    21860.156    3.1827275    27.960896 
    4700   0.99909991   -1314.9752   -17.485544    21857.745    3.1830786    27.959868 
    4710   0.99754582   -1314.9659   -11.512923    21853.886    3.1836407    27.958222 
    4720   0.99609085   -1314.9564   -4.1011441    21849.078    3.1843412    27.956172 
    4730    0.9947566   -1314.9465    3.8247255     21843.94    3.1850903     27.95398 
    4740   0.99355824   -1314.9361    11.270469    21839.127    3.1857921    27.951927 
    4750   0.99250613   -1314.9255    17.297418    21835.259    3.1863566    27.950277 
    4760   0.99160725    -1314.915    21.143028     21832.83     3.186711    27.949241 
    4770   0.99086626    -1314.905     22.32075    21832.157    3.1868092    27.948954 
    4780   0.99028603   -1314.8956    20.684484    21833.336    3.1866372    27.949456 
    4790   0.98986758   -1314.8866    16.447695    21836.227    3.1862153     27.95069 
    4800   0.98960941   -1314.8776    10.154203    21840.478    3.1855952    27.952504 
    4810    0.9895064   -1314.8683    2.6053384    21845.566    3.1848532    27.954674 
    4820   0.98954847   -1314.8584   -5.2453211    21850.863    3.1840811    27.956934 
    4830   0.98971917   -1314.8479   -12.414226    21855.719    3.1833736    27.959004 
    4840   0.98999446   -1314.8372   -18.010582    21859.539    3.1828174    27.960633 
    4850   0.99034201   -1314.8266    -21.34445    21861.857    3.1824799    27.961621 
    4860   0.99072116   -1314.8163   -22.008352    21862.399     3.182401    27.961852 
    4870   0.99108359   -1314.8065   -19.924405    21861.112    3.1825883    27.961304 
    4880     0.991375   -1314.7968   -15.352799    21858.173    3.1830163    27.960051 
    4890    0.9915375   -1314.7868   -8.8609843    21853.965    3.1836292    27.958256 
    4900   0.99151268   -1314.7761   -1.2563528    21849.029    3.1843484    27.956151 
    4910   0.99124511   -1314.7643    6.5111652    21843.999    3.1850817    27.954006 
    4920   0.99068596   -1314.7517     13.46635    21839.518    3.1857352    27.952094 
    4930   0.98979622   -1314.7384     18.73204    21836.162    3.1862248    27.950662 
    4940   0.98854934   -1314.7247    21.642575    21834.365     3.186487    27.949896 
    4950   0.98693282   -1314.7109     21.83134    21834.365     3.186487    27.949895 
    4960   0.98494855   -1314.6969    19.279289    21836.174     3.186223    27.950667 
    4970   0.98261183   -1314.6826    14.316943    21839.579    3.1857263     27.95212 
    4980   0.97994916   -1314.6675    7.5796076    21844.167    3.1850572    27.954077 
    4990   0.97699491   -1314.6512  -0.07715464    21849.378    3.1842976      27.9563 
    5000   0.97378746   -1314.6337   -7.6889625    21854.575    3.1835402    27.958517 
    5010   0.97036495   -1314.6151   -14.305106    21859.128    3.1828772    27.960458 
    5020   0.96676137   -1314.5958   -19.106021    21862.487    3.1823882     27.96189 
    5030   0.96300328   -1314.5761   -21.501844    21864.253    3.1821311    27.962643 
    5040    0.9591076   -1314.5563    -21.20165    21864.231    3.1821344    27.962633 
    5050   0.95508074   -1314.5364   -18.246804    21862.448    3.1823939    27.961873 
    5060   0.95091908    -1314.516    -13.00557    21859.152    3.1828737    27.960468 
    5070   0.94661092   -1314.4948   -6.1295222    21854.783    3.1835099    27.958605 
    5080   0.94213961   -1314.4725     1.524219    21849.915    3.1842193    27.956529 
    5090   0.93748733    -1314.449    8.9972375    21845.182    3.1849091     27.95451 
    5100   0.93263931   -1314.4244    15.349148    21841.205    3.1854891    27.952814 
    5110    0.9275876   -1314.3992    19.777471    21838.509    3.1858824    27.951664 
    5120   0.92233414   -1314.3738    21.722021    21837.457    3.1860358    27.951215 
    5130   0.91689244   -1314.3483    20.938763    21838.208    3.1859263    27.951535 
    5140   0.91128795   -1314.3227    17.531942    21840.693    3.1855637    27.952596 
    5150   0.90555695   -1314.2969    11.939513    21844.629    3.1849897    27.954275 
    5160   0.89974431   -1314.2703    4.8742185    21849.551    3.1842724    27.956374 
    5170   0.89390052    -1314.243   -2.7705194     21854.87    3.1834974    27.958642 
    5180   0.88807857   -1314.2149   -10.035935    21859.952    3.1827573    27.960809 
    5190   0.88233109   -1314.1863   -16.018503    21864.193    3.1821399    27.962617 
    5200   0.87670815   -1314.1577   -19.980495    21867.097    3.1817173    27.963855 
    5210   0.87127528   -1314.1049    -21.29534    21868.342    3.1815362    27.964386 
    5220   0.86605287   -1314.0773   -20.100607    21867.815    3.1816128    27.964161 
    5230   0.86107861   -1314.0502    -16.39767    21865.619    3.1819324    27.963225 
    5240   0.85638953   -1314.0233   -10.648315    21862.065    3.1824496     27.96171 
    5250    0.8520227   -1313.9965   -3.5687318    21857.634    3.1830948    27.959821 
    5260   0.84801707   -1313.9694    3.9565322    21852.915    3.1837821    27.957809 
    5270   0.84441509   -1313.9422    10.983017    21848.535    3.1844204     27.95594 
    5280   0.84126381   -1313.9152    16.624863    21845.075    3.1849248    27.954464 
    5290   0.83861533   -1313.8889    20.168456        21843    3.1852273     27.95358 
    5300   0.83652644   -1313.8635    21.165634    21842.602    3.1852854     27.95341 
    5310   0.83505765   -1313.8393    19.492768     21843.96    3.1850874    27.953989 
    5320   0.83427152   -1313.8163    15.366739    21846.933     3.184654    27.955257 
    5330   0.83427073   -1313.7451    9.6111647     21851.18    3.1840349    27.957069 
    5340   0.83510628   -1313.7237    2.3631111    21856.216    3.1833013    27.959216 
    5350   0.83680003   -1313.6782   -5.0174736    21861.443    3.1825402    27.961445 
    5360   0.83943343   -1313.6335   -11.763433     21866.25    3.1818406    27.963494 
    5370   0.84300806   -1313.6143   -17.182918    21870.071    3.1812846    27.965123 
    5380   0.84755477   -1313.5966   -20.458597    21872.459    3.1809373     27.96614 
    5390   0.85311554   -1313.5561   -21.046411    21873.145    3.1808376    27.966433 
    5400   0.85970865   -1313.5176   -19.032098    21872.084    3.1809919    27.965981 
    5410   0.86733447   -1313.4809   -14.670908    21869.448    3.1813752    27.964857 
    5420   0.87597804   -1313.4703   -8.6558636    21865.603    3.1819347    27.963218 
    5430   0.88559967   -1313.4608    -1.579062    21861.046     3.182598    27.961276 
    5440   0.89617226   -1313.4278    5.8259693    21856.368    3.1832791    27.959281 
    5450   0.90767961   -1313.4206    12.335412    21852.178    3.1838896    27.957494 
    5460   0.92007492   -1313.3902    17.418618    21849.022    3.1843493    27.956148 
    5470   0.93328063   -1313.4107    19.985053    21847.318    3.1845978    27.955421 
    5480   0.94722144   -1313.4086    20.157298    21847.279    3.1846035    27.955405 
    5490   0.96179682   -1313.4085    17.773323    21848.913    3.1843653    27.956102 
    5500   0.97690861   -1313.4102    13.140802    21852.019    3.1839127    27.957426 
    5510   0.99244458   -1313.4132    6.8512138     21856.21    3.1833021    27.959214 
    5520    1.0082767   -1313.4174  -0.29855926    21860.964    3.1826098    27.961241 
    5530    1.0242587   -1313.4226    -7.409732    21865.686    3.1819226    27.963254 
    5540    1.0402368   -1313.4535   -13.738296    21869.779     3.181327    27.964998 
    5550    1.0560114   -1313.4612   -18.207559    21872.724    3.1808988    27.966253 
    5560    1.0713627   -1313.4706   -20.420684    21874.149    3.1806915    27.966861 
    5570    1.0860436   -1313.4574   -19.959043    21873.875    3.1807314    27.966744 
    5580    1.0997838   -1313.4706   -17.180172    21871.937    3.1810132    27.965918 
    5590    1.1122481   -1313.4853   -12.286954    21868.575    3.1815023    27.964485 
    5600       1.1231   -1313.5011   -5.8885773    21864.199     3.182139     27.96262 
    5610    1.1320004   -1313.5178    1.2169381    21859.344    3.1828458     27.96055 
    5620    1.1386452   -1313.5351    8.1400776      21854.6    3.1835366    27.958527 
    5630     1.142825   -1313.5532    14.010736    21850.543    3.1841278    27.956797 
    5640    1.1445009   -1313.5723    18.089135    21847.657    3.1845484    27.955566 
    5650    1.1439018   -1313.6174    19.718942    21846.271    3.1847503    27.954975 
    5660    1.1414776   -1313.6638    18.842575    21846.524    3.1847135    27.955083 
    5670    1.1378932   -1313.6871    15.724453    21848.342    3.1844485    27.955858 
    5680    1.1338446   -1313.7114    10.620431    21851.462    3.1839938    27.957189 
    5690    1.1299307   -1313.7365    4.1826584    21855.458    3.1834117    27.958893 
    5700    1.1265801   -1313.7867   -2.9181356    21859.791    3.1827807     27.96074 
    5710    1.1239674   -1313.8128   -9.4948279    21863.874    3.1821863    27.962481 
    5720    1.1221548   -1313.8641   -15.022148    21867.156    3.1817087     27.96388 
    5730    1.1210706   -1313.8919   -18.522798    21869.184    3.1814137    27.964745 
    5740    1.1206314   -1313.9453   -19.869361    21869.669    3.1813431    27.964951 
    5750     1.120796   -1314.0247   -18.897459      21868.5    3.1815132    27.964453 
    5760    1.1214031   -1314.0559   -15.280834    21865.765    3.1819112    27.963287 
    5770    1.1223174   -1314.0878   -9.7685362    21861.766    3.1824931    27.961583 
    5780    1.1234359   -1314.1444   -3.1964438    21856.966    3.1831921    27.959536 
    5790    1.1247296   -1314.2011    3.7653391    21851.912    3.1839283    27.957381 
    5800    1.1260264   -1314.2329    10.398359    21847.183    3.1846175    27.955364 
    5810     1.127211   -1314.2645    15.718808    21843.327    3.1851796    27.953719 
    5820    1.1281895   -1314.2961    19.057025    21840.783    3.1855506    27.952634 
    5830    1.1288788   -1314.3278    19.994124    21839.825    3.1856904    27.952225 
    5840     1.129209   -1314.3597    18.417032    21840.527     3.185588    27.952524 
    5850    1.1291255   -1314.3914    14.532996    21842.754    3.1852632    27.953475 
    5860    1.1285897   -1314.4226    8.8413826    21846.183    3.1847632    27.954937 
    5870    1.1275787   -1314.4529    2.0671766     21850.34    3.1841574     27.95671 
    5880    1.1260837   -1314.4821   -4.9337579    21854.661    3.1835278    27.958553 
    5890    1.1241075   -1314.5101   -11.284041    21858.566    3.1829591    27.960218 
    5900    1.1216613   -1314.5373   -16.194129    21861.527     3.182528     27.96148 
    5910    1.1187617   -1314.5638   -19.058264    21863.138    3.1822935    27.962167 
    5920    1.1154273   -1314.5899   -19.526393    21863.163    3.1822898    27.962178 
    5930    1.1116767   -1314.6155   -17.544848    21861.567    3.1825221    27.961498 
    5940    1.1075272   -1314.6406   -13.362034    21858.518    3.1829661    27.960198 
    5950    1.1029939   -1314.6646   -7.4987051    21854.367    3.1835706    27.958428 
    5960    1.0980906   -1314.6874  -0.68564596    21849.604    3.1842646    27.956396 
    5970    1.0928315   -1314.7087    6.2250421    21844.795    3.1849656    27.954345 
    5980    1.0872327   -1314.7286    12.365465    21840.514    3.1855898    27.952519 
    5990    1.0813144   -1314.7473    16.961731    21837.269    3.1860633    27.951135 
    6000    1.0751031   -1314.7653    19.433756    21835.437    3.1863306    27.950353 
    6010    1.0686327   -1314.7826    19.471119    21835.219    3.1863624     27.95026 
    6020    1.0619448   -1314.7994    17.073789    21836.616    3.1861586    27.950856 
    6030    1.0550888   -1314.8154     12.55154    21839.425    3.1857487    27.952054 
    6040    1.0481205   -1314.8304    6.4822075     21843.27     3.185188    27.953695 
    6050    1.0410995   -1314.8442  -0.36475193    21847.646      3.18455    27.955561 
    6060    1.0340874   -1314.8567   -7.1280526    21851.983    3.1839179    27.957411 
    6070    1.0271444    -1314.868   -12.963708    21855.722    3.1833732    27.959006 
    6080    1.0203272   -1314.8787   -17.149325    21858.378    3.1829864    27.960138 
    6090    1.0136865   -1314.8888     -19.1712    21859.605    3.1828077    27.960661 
    6100     1.007266   -1314.8988    -18.78489    21859.238    3.1828611    27.960505 
    6110    1.0011013   -1314.9085   -16.043341    21857.313    3.1831415    27.959684 
    6120   0.99522068   -1314.9179   -11.290053    21854.061    3.1836151    27.958297 
    6130   0.98964606   -1314.9264    -5.117997    21849.881    3.1842242    27.956514 
    6140   0.98439481   -1314.9341    1.7017475    21845.286     3.184894    27.954555 
    6150   0.97948198   -1314.9407    8.3142973    21840.844    3.1855418     27.95266 
    6160   0.97492273   -1314.9464    13.887661    21837.102    3.1860877    27.951063 
    6170   0.97073453   -1314.9517    17.718709    21834.519    3.1864645    27.949961 
    6180   0.96693903   -1314.9566    19.324289    21833.411    3.1866262    27.949489 
    6190   0.96356318   -1314.9615    18.504486    21833.907    3.1865539      27.9497 
    6200   0.96063955   -1314.9662    15.368622    21835.935    3.1862579    27.950565 
    6210    0.9582058   -1314.9706    10.320057    21839.232    3.1857768    27.951972 
    6220   0.95630323   -1314.9744    4.0022018     21843.38     3.185172    27.953741 
    6230   0.95497455   -1314.9773   -2.7860283    21847.851    3.1845201    27.955649 
    6240   0.95426107   -1314.9796   -9.1930107    21852.083    3.1839034    27.957453 
    6250   0.95419951   -1314.9812   -14.421404    21855.544    3.1833992    27.958929 
    6260   0.95481858   -1314.9827   -17.825858    21857.801    3.1830705    27.959892 
    6270   0.95613568   -1314.9843   -18.990243    21858.574    3.1829579    27.960222 
    6280   0.95815391    -1314.986   -17.776379    21857.769     3.183075    27.959878 
    6290   0.96085963   -1314.9879   -14.339617    21855.491    3.1834068    27.958907 
    6300   0.96422083   -1314.9897   -9.1099397    21852.029    3.1839112    27.957431 
    6310   0.96818654    -1314.991   -2.7404177     21847.82    3.1845246    27.955636 
    6320   0.97268751   -1314.9917    3.9718671    21843.395    3.1851698    27.953748 
    6330   0.97763815   -1314.9919    10.184044     21839.31    3.1857656    27.952005 
    6340   0.98293974   -1314.9917    15.113427    21836.079    3.1862369    27.950627 
    6350   0.98848461   -1314.9914    18.137814    21834.109    3.1865244    27.949786 
    6360   0.99416073   -1314.9913    18.876414    21833.646     3.186592    27.949589 
    6370   0.99985634   -1314.9914    17.239677    21834.748    3.1864311    27.950059 
    6380    1.0054638   -1314.9917     13.44058    21837.276    3.1860622    27.951138 
    6390    1.0108823   -1314.9918    7.9656815    21840.914    3.1855316     27.95269 
    6400    1.0160195   -1314.9915    1.5104663    21845.204    3.1849059     27.95452 
    6410    1.0207919   -1314.9907   -5.1113482    21849.612    3.1842634      27.9564 
    6420    1.0251235   -1314.9895   -11.071615    21853.587    3.1836843    27.958095 
    6430    1.0289454   -1314.9882   -15.630877    21856.635    3.1832403    27.959395 
    6440    1.0321937    -1314.987   -18.228219    21858.379    3.1829863    27.960138 
    6450    1.0348088   -1314.9862   -18.547895    21858.607    3.1829531    27.960236 
    6460    1.0367352   -1314.9858   -16.555995    21857.295    3.1831442    27.959676 
    6470     1.037922   -1314.9857   -12.503745    21854.612    3.1835349    27.958532 
    6480     1.038325   -1314.9854   -6.8972368    21850.899    3.1840759    27.956949 
    6490    1.0379096   -1314.9848   -0.4365422    21846.623    3.1846991    27.955125 
    6500    1.0366539   -1314.9838    6.0695939    21842.323    3.1853261    27.953291 
    6510    1.0345534   -1314.9823    11.804128    21838.537    3.1858783    27.951676 
    6520     1.031624   -1314.9806    16.045121    21835.739    3.1862865    27.950482 
    6530     1.027905    -1314.979    18.258715    21834.278    3.1864997    27.949858 
    6540    1.0234607   -1314.9775    18.168712    21834.333    3.1864917    27.949882 
    6550    1.0183793   -1314.9762    15.792556    21835.893     3.186264    27.950548 
    6560    1.0127702    -1314.975    11.438347    21838.759    3.1858459     27.95177 
    6570    1.0067595   -1314.9734      5.66338    21842.567    3.1852905    27.953395 
    6580    1.0004834   -1314.9713  -0.79941111    21846.837    3.1846679    27.955216 
    6590   0.99408138   -1314.9687    -7.136307    21851.031    3.1840566    27.957005 
    6600    0.9876902   -1314.9656   -12.555751    21854.625     3.183533    27.958538 
    6610   0.98143795   -1314.9623   -16.386107    21857.169    3.1831624    27.959623 
    6620   0.97544063   -1314.9591   -18.156669    21858.348    3.1829908    27.960125 
    6630   0.96980017   -1314.9561   -17.653211    21858.017    3.1830389    27.959984 
    6640    0.9646043   -1314.9532   -14.942599    21856.223    3.1833003    27.959219 
    6650   0.95992779   -1314.9503   -10.364235    21853.193    3.1837417    27.957927 
    6660   0.95583452   -1314.9469   -4.4892335    21849.311    3.1843072    27.956272 
    6670    0.9523799    -1314.943    1.9486237    21845.068    3.1849257    27.954462 
    6680   0.94961283   -1314.9383     8.142918    21840.999    3.1855192    27.952726 
    6690   0.94757671   -1314.9331    13.315397    21837.615    3.1860128    27.951282 
    6700   0.94630866   -1314.9275    16.815082    21835.343    3.1863442    27.950313 
    6710   0.94583637   -1314.9217    18.202445    21834.471    3.1864715    27.949941 
    6720   0.94617247   -1314.9159    17.306713    21835.109    3.1863784    27.950213 
    6730   0.94730643     -1314.91    14.247841     21837.18    3.1860762    27.951097 
    6740   0.94919538   -1314.9038    9.4198697    21840.427    3.1856026    27.952482 
    6750   0.95175613   -1314.8968    3.4383038    21844.448    3.1850162    27.954197 
    6760   0.95486153   -1314.8891   -2.9405675    21848.745    3.1843897     27.95603 
    6770    0.9583442   -1314.8806   -8.9167487     21852.79    3.1838004    27.957755 
    6780   0.96200887   -1314.8714   -13.746864    21856.085    3.1833203     27.95916 
    6790   0.96565135   -1314.8619   -16.835162    21858.233    3.1830076    27.960076 
    6800    0.9690797   -1314.8521    -17.80478    21858.978    3.1828991    27.960394 
    6810   0.97213197   -1314.8423   -16.541845    21858.244     3.183006    27.960081 
    6820   0.97468683   -1314.8324   -13.208166    21856.139    3.1833125    27.959183 
    6830   0.97666646    -1314.822   -8.2214325    21852.944    3.1837778    27.957821 
    6840    0.9780334   -1314.8109   -2.2048986    21849.077    3.1843414    27.956172 
    6850   0.97878442    -1314.799    4.0883622    21845.037    3.1849302    27.954449 
    6860    0.9789436   -1314.7863    9.8684536    21841.348    3.1854682    27.952875 
    6870   0.97855619    -1314.773    14.408015    21838.488    3.1858854    27.951655 
    6880   0.97768351   -1314.7594     17.13531    21836.829    3.1861275    27.950947 
    6890   0.97639871   -1314.7457    17.708353    21836.594    3.1861617    27.950847 
    6900   0.97478306    -1314.732     16.05941    21837.828    3.1859817    27.951373 
    6910   0.97292222   -1314.7182    12.403281     21840.39     3.185608    27.952466 
    6920   0.97090255   -1314.7042    7.2081821    21843.974    3.1850853    27.953995 
    6930   0.96880734   -1314.6897    1.1336874    21848.147    3.1844769    27.955775 
    6940   0.96671305   -1314.6747   -5.0550429    21852.406    3.1838563    27.957591 
    6950   0.96468619   -1314.6593   -10.584674    21856.235    3.1832985    27.959224 
    6960    0.9627807   -1314.6437   -14.769885    21859.177    3.1828701    27.960479 
    6970   0.96103658   -1314.6284   -17.096641    21860.886    3.1826213    27.961207 
    6980   0.95947967   -1314.6135    -17.28329    21861.172    3.1825797    27.961329 
    6990   0.95812278   -1314.5991   -15.313259    21860.022     3.182747    27.960839 
    7000   0.95696809    -1314.585   -11.436271    21857.605     3.183099    27.959808 
    7010   0.95601038    -1314.571   -6.1380653    21854.246    3.1835883    27.958376 
    7020   0.95524096    -1314.557 -0.081681626    21850.387    3.1841504     27.95673 
    7030   0.95465144   -1314.5429     5.973622    21846.533    3.1847122    27.955087 
    7040   0.95423715   -1314.5288    11.266764    21843.186    3.1852002    27.953659 
    7050   0.95399958   -1314.5149    15.131156    21840.782    3.1855508    27.952633 
    7060   0.95394771   -1314.5016    17.080387    21839.639    3.1857176    27.952146 
    7070   0.95409809    -1314.489    16.871365    21839.914    3.1856773    27.952263 
    7080   0.95447389    -1314.477    14.535768    21841.588    3.1854333    27.952977 
    7090   0.95510293   -1314.4657    10.375126    21844.462    3.1850141    27.954203 
    7100   0.95601529   -1314.4548    4.9203786     21848.19    3.1844707    27.955793 
    7110   0.95724051   -1314.4441   -1.1379767    21852.317    3.1838693    27.957553 
    7120   0.95880497   -1314.4337   -7.0389843    21856.339    3.1832833    27.959269 
    7130   0.96072948   -1314.4236   -12.047295    21859.768     3.182784    27.960731 
    7140   0.96302732   -1314.4142   -15.543882    21862.189    3.1824316    27.961763 
    7150   0.96570298   -1314.4058   -17.100691    21863.312     3.182268    27.962242 
    7160   0.96875135   -1314.3984   -16.531173    21863.014    3.1823115    27.962114 
    7170   0.97215765    -1314.392    -13.91165    21861.344    3.1825546    27.961402 
    7180   0.97589784   -1314.3865   -9.5715543    21858.524    3.1829652      27.9602 
    7190   0.97993947   -1314.3815   -4.0536042    21854.918    3.1834904    27.958663 
    7200   0.98424291    -1314.377    1.9520705    21850.986    3.1840631    27.956986 
    7210   0.98876272   -1314.3728    7.6928063    21847.229    3.1846108    27.955383 
    7220   0.99344917   -1314.3691    12.447552     21844.12    3.1850639    27.954058 
    7230   0.99824956    -1314.366    15.618588    21842.053    3.1853654    27.953176 
    7240    1.0031095   -1314.3638    16.808603    21841.286    3.1854772    27.952848 
    7250    1.0079736   -1314.3625    15.872242    21841.915    3.1853856    27.953117 
    7260    1.0127863   -1314.3621    12.934615    21843.858    3.1851022    27.953945 
    7270    1.0174917   -1314.3622    8.3740447    21846.868    3.1846634     27.95523 
    7280    1.0220329   -1314.3627    2.7717284    21850.565    3.1841245    27.956806 
    7290    1.0263517   -1314.3634   -3.1641762    21854.483    3.1835536    27.958477 
    7300    1.0303869   -1314.3642   -8.6892209    21858.129    3.1830226    27.960032 
    7310    1.0340734   -1314.3654   -13.115903    21861.045    3.1825981    27.961275 
    7320    1.0373404   -1314.3671   -15.897843    21862.864    3.1823333    27.962051 
    7330    1.0401108   -1314.3694   -16.695245    21863.359    3.1822613    27.962262 
    7340     1.042301   -1314.3724   -15.414744    21862.466    3.1823912    27.961881 
    7350    1.0438211    -1314.376   -12.219742    21860.297     3.182707    27.960956 
    7360    1.0445779   -1314.3799   -7.5103415    21857.121    3.1831695    27.959602 
    7370    1.0444786   -1314.3838    -1.874927    21853.331    3.1837216    27.957986 
    7380    1.0434388   -1314.3875    3.9816043    21849.397    3.1842947    27.956308 
    7390    1.0413933   -1314.3911    9.3250857    21845.806    3.1848181    27.954777 
    7400    1.0383103   -1314.3946    13.484492        21843    3.1852274    27.953579 
    7410    1.0342093   -1314.3983    15.937744    21841.319    3.1854724    27.952863 
    7420    1.0291777   -1314.4022     16.37923    21840.965    3.1855241    27.952711 
    7430    1.0233822   -1314.4065    14.759403    21841.969    3.1853777     27.95314 
    7440    1.0170675   -1314.4109    11.290628    21844.194    3.1850532    27.954089 
    7450    1.0105367   -1314.4153     6.418465     21847.35    3.1845932    27.955435 
    7460    1.0041162   -1314.4194   0.76274807    21851.029    3.1840569    27.957004 
    7470   0.99811055   -1314.4232   -4.9628814    21854.763    3.1835129    27.958597 
    7480    0.9927646   -1314.4267    -10.04172    21858.075    3.1830305    27.960009 
    7490   0.98823947   -1314.4301    -13.84311    21860.545    3.1826708    27.961062 
    7500   0.98460857   -1314.4335   -15.899102     21861.86    3.1824794    27.961623 
    7510   0.98186818   -1314.4372    -15.96011    21861.852    3.1824807    27.961619 
    7520   0.97995594   -1314.4411   -14.023863    21860.519    3.1826747    27.961051 
    7530    0.9787704   -1314.4449   -10.334888    21858.026    3.1830377    27.959988 
    7540   0.97818804   -1314.4484   -5.3546944    21854.684    3.1835244    27.958563 
    7550   0.97807616   -1314.4513   0.29427574    21850.909    3.1840744    27.956953 
    7560   0.97830215   -1314.4535    5.9050021    21847.171    3.1846193    27.955359 
    7570   0.97873976   -1314.4551     10.77392    21843.934    3.1850912    27.953978 
    7580   0.97927351    -1314.456    14.289931      21841.6    3.1854314    27.952982 
    7590   0.97980171   -1314.4565    16.012792    21840.459    3.1855979    27.952495 
    7600   0.98023843   -1314.4565    15.730032    21840.648    3.1855704    27.952576 
    7610   0.98051482   -1314.4561    13.484222     21842.14    3.1853527    27.953213 
    7620   0.98057943    -1314.455    9.5666171    21844.746    3.1849727    27.954324 
    7630     0.980398    -1314.453    4.4781858    21848.138    3.1844782    27.955771 
    7640   0.97995241   -1314.4499   -1.1361162    21851.893     3.183931    27.957373 
    7650   0.97923919   -1314.4456   -6.5703888    21855.544    3.1833992    27.958929 
    7660   0.97826756   -1314.4402   -11.146797    21858.639    3.1829483    27.960249 
    7670   0.97705746    -1314.434   -14.299194    21860.802    3.1826335    27.961171 
    7680   0.97563744   -1314.4271   -15.641484    21861.771    3.1824923    27.961585 
    7690   0.97404268   -1314.4196   -15.013284     21861.44    3.1825406    27.961444 
    7700   0.97231302   -1314.4115   -12.498265    21859.864      3.18277    27.960772 
    7710   0.97049075   -1314.4027   -8.4134848    21857.257    3.1831497     27.95966 
    7720   0.96861765   -1314.3929   -3.2708424     21853.96    3.1836299    27.958254 
    7730   0.96673095   -1314.3821    2.2853116    21850.403    3.1841481    27.956737 
    7740   0.96485762   -1314.3702    7.5576431    21847.048    3.1846372    27.955306 
    7750   0.96300705   -1314.3576    11.883143     21844.33    3.1850334    27.954147 
    7760    0.9611629   -1314.3443    14.717384    21842.606    3.1852848    27.953411 
    7770   0.95927624   -1314.3307    15.704517    21842.108    3.1853575    27.953199 
    7780   0.95726397    -1314.317    14.723215    21842.913    3.1852401    27.953542 
    7790   0.95501695   -1314.3031    11.901941    21844.936    3.1849451    27.954405 
    7800   0.95242186   -1314.2891    7.6013572     21847.94    3.1845071    27.955687 
    7810   0.94939593   -1314.2748     2.366591    21851.566    3.1839786    27.957233 
    7820    0.9459265   -1314.2603   -3.1436352    21855.379    3.1834232    27.958859 
    7830   0.94209934   -1314.2457   -8.2410447     21858.92    3.1829075    27.960369 
    7840   0.93810002   -1314.2313   -12.293857    21861.767     3.182493    27.961583 
    7850   0.93418597   -1314.2176   -14.804172    21863.586    3.1822283    27.962358 
    7860   0.93064413   -1314.2047   -15.467741     21864.17    3.1821432    27.962607 
    7870   0.92775382   -1314.1928   -14.209728    21863.469    3.1822453    27.962308 
    7880   0.92576344   -1314.1821   -11.192881     21861.59    3.1825187    27.961508 
    7890   0.92487861   -1314.1723   -6.7974178    21858.789    3.1829266    27.960313 
    7900   0.92525598   -1314.1634    -1.574776    21855.434    3.1834152    27.958882 
    7910    0.9269988   -1314.1555    3.8199021    21851.959    3.1839215    27.957401 
    7920   0.93015361   -1314.1485    8.7090015    21848.813    3.1843799    27.956059 
    7930   0.93470913   -1314.1427    12.477715    21846.399    3.1847317    27.955029 
    7940   0.94059948   -1314.1383    14.652492    21845.028    3.1849316    27.954445 
    7950   0.94771293   -1314.1355    14.962034    21844.876    3.1849538     27.95438 
    7960   0.95590557   -1314.1343    13.372215    21845.965     3.184795    27.954844 
    7970   0.96501737   -1314.1346    10.089862    21848.159    3.1844751     27.95578 
    7980    0.9748865   -1314.1363    5.5349193    21851.184    3.1840344     27.95707 
    7990   0.98535877   -1314.1392     0.285154    21854.659    3.1835281    27.958552 
    8000   0.99629059   -1314.1432   -4.9985651    21858.147    3.1830201     27.96004 
    8010    1.0075466   -1314.1483   -9.6560916     21861.21     3.182574    27.961346 
    8020    1.0189935   -1314.1547   -13.110006    21863.463    3.1822461    27.962306 
    8030    1.0304929   -1314.1625   -14.935867    21864.621    3.1820776      27.9628 
    8040    1.0418943   -1314.1718   -14.912816    21864.535    3.1820901    27.962763 
    8050    1.0530291   -1314.1825   -13.049282    21863.212    3.1822826    27.962199 
    8060    1.0637063   -1314.1945   -9.5812588     21860.81    3.1826322    27.961175 
    8070    1.0737102   -1314.2075    -4.943456    21857.622    3.1830965    27.959816 
    8080    1.0828012   -1314.2212   0.28367269    21854.035     3.183619    27.958286 
    8090    1.0907217   -1314.2357    5.4453066    21850.484    3.1841364    27.956772 
    8100    1.0972115   -1314.2508    9.8939041    21847.397    3.1845863    27.955455 
    8110    1.1020399   -1314.2667    13.071153    21845.141    3.1849152    27.954493 
    8120     1.105059   -1314.2835     14.57957    21843.976    3.1850851    27.953996 
    8130    1.1062816   -1314.3012    14.233911    21844.023    3.1850781    27.954016 
    8140    1.1059593   -1314.3199    12.085013     21845.25    3.1848992    27.954539 
    8150    1.1046146   -1314.3393      8.41249    21847.476    3.1845748    27.955489 
    8160    1.1029669   -1314.3593    3.6872831    21850.392    3.1841497    27.956733 
    8170    1.1017468   -1314.3797    -1.490426    21853.606    3.1836815    27.958103 
    8180    1.1014865   -1314.4006   -6.4688336    21856.686    3.1832328    27.959416 
    8190    1.1024034    -1314.422   -10.626827     21859.22    3.1828638    27.960497 
    8200    1.1044235   -1314.4441   -13.450427    21860.865    3.1826243    27.961198 
    8210    1.1072874    -1314.467   -14.594531    21861.389     3.182548    27.961422 
    8220    1.1106631   -1314.4908   -13.923417      21860.7    3.1826483    27.961128 
    8230     1.114224   -1314.5153   -11.526002    21858.859    3.1829164    27.960343 
    8240    1.1176917   -1314.5404   -7.7044012    21856.067    3.1833229    27.959153 
    8250    1.1208554   -1314.5657   -2.9370099    21852.648    3.1838211    27.957694 
    8260    1.1235779    -1314.591    2.1800167    21848.996    3.1843531    27.956137 
    8270    1.1257902   -1314.6163    7.0064263    21845.539     3.184857    27.954663 
    8280    1.1274782   -1314.6415     10.93804    21842.676    3.1852746    27.953441 
    8290    1.1286616   -1314.6667    13.483398    21840.729    3.1855586    27.952611 
    8300    1.1293721   -1314.6919    14.326719    21839.906    3.1856786    27.952259 
    8310    1.1296348   -1314.7172    13.368432    21840.273    3.1856251    27.952416 
    8320    1.1294589   -1314.7422    10.737492    21841.746    3.1854101    27.953045 
    8330    1.1288363   -1314.7668    6.7737533    21844.106    3.1850661    27.954051 
    8340    1.1277472   -1314.7908    1.9830471    21847.019    3.1846413    27.955294 
    8350    1.1261675   -1314.8139   -3.0285001    21850.088     3.184194    27.956603 
    8360    1.1240759   -1314.8362   -7.6317538    21852.897    3.1837847    27.957801 
    8370    1.1214587   -1314.8577   -11.253234    21855.065     3.183469    27.958725 
    8380    1.1183107   -1314.8785   -13.445402    21856.292    3.1832902    27.959249 
    8390    1.1146351   -1314.8987   -13.940464      21856.4    3.1832744    27.959295 
    8400    1.1104414   -1314.9182   -12.681884    21855.353     3.183427    27.958848 
    8410    1.1057437   -1314.9369   -9.8304391    21853.258    3.1837322    27.957955 
    8420    1.1005593   -1314.9547   -5.7442847    21850.355    3.1841551    27.956717 
    8430    1.0949086   -1314.9713  -0.93518088    21846.987     3.184646     27.95528 
    8440    1.0888156   -1314.9867    3.9944093    21843.555    3.1851464    27.953816 
    8450     1.082309   -1315.0008    8.4262197    21840.466    3.1855968    27.952499 
    8460    1.0754236   -1315.0137    11.804067    21838.087    3.1859438    27.951484 
    8470    1.0682018   -1315.0257    13.704759    21836.695     3.186147     27.95089 
    8480    1.0606941   -1315.0369    13.892447    21836.443    3.1861838    27.950782 
    8490     1.052959   -1315.0473    12.348813    21837.343    3.1860525    27.951166 
    8500    1.0450626   -1315.0568    9.2747562    21839.263    3.1857724    27.951985 
    8510    1.0370769   -1315.0654    5.0634406    21841.945    3.1853812    27.953129 
    8520    1.0290779   -1315.0729   0.24867913    21845.038    3.1849301    27.954449 
    8530    1.0211434   -1315.0795   -4.5639334    21848.143    3.1844775    27.955773 
    8540    1.0133501   -1315.0851   -8.7737108     21850.86    3.1840816    27.956932 
    8550    1.0057721   -1315.0901   -11.859464     21852.84     3.183793    27.957777 
    8560   0.99847843   -1315.0946   -13.442957    21853.831    3.1836487    27.958199 
    8570   0.99153205   -1315.0988   -13.334063    21853.704    3.1836672    27.958145 
    8580   0.98498923   -1315.1027    -11.55286    21852.472    3.1838466     27.95762 
    8590   0.97889936   -1315.1063   -8.3264683    21850.288    3.1841649    27.956688 
    8600   0.97330554   -1315.1095   -4.0610717    21847.421    3.1845827    27.955465 
    8610   0.96824545   -1315.1121   0.70788197    21844.229    3.1850481    27.954104 
    8620   0.96375247   -1315.1141    5.3818102    21841.108    3.1855033    27.952772 
    8630   0.95985692   -1315.1157    9.3737899    21838.444    3.1858918    27.951636 
    8640    0.9565871    -1315.117    12.182806    21836.567    3.1861656    27.950835 
    8650   0.95396998   -1315.1181    13.457775    21835.706    3.1862913    27.950468 
    8660   0.95203134   -1315.1191    13.042591    21835.963    3.1862538    27.950577 
    8670   0.95079525   -1315.1199    10.995842    21837.299    3.1860589    27.951147 
    8680   0.95028267   -1315.1206    7.5824112    21839.541    3.1857317    27.952104 
    8690   0.95050906   -1315.1209    3.2382603    21842.405    3.1853141    27.953326 
    8700   0.95148111   -1315.1207   -1.4864477    21845.528    3.1848588    27.954658 
    8710   0.95319252     -1315.12   -5.9978805    21848.517     3.184423    27.955933 
    8720   0.95561921   -1315.1188   -9.7332576    21850.999    3.1840612    27.956992 
    8730   0.95871449   -1315.1172   -12.230308    21852.667    3.1838183    27.957703 
    8740   0.96240489   -1315.1154   -13.183242    21853.315    3.1837239    27.957979 
    8750   0.96658776   -1315.1134   -12.479051    21852.868     3.183789    27.957788 
    8760   0.97113157   -1315.1111   -10.210348    21851.388    3.1840046    27.957157 
    8770   0.97587977   -1315.1082   -6.6635408    21849.068    3.1843427    27.956168 
    8780   0.98065813   -1315.1046   -2.2836418    21846.204    3.1847601    27.954946 
    8790   0.98528496   -1315.1002    2.3804463    21843.163    3.1852035    27.953649 
    8800   0.98958277   -1315.0948    6.7440225    21840.331    3.1856166    27.952441 
    8810   0.99338941   -1315.0885    10.259969    21838.068    3.1859467    27.951476 
    8820   0.99656741   -1315.0815    12.488195    21836.664    3.1861515    27.950876 
    8830   0.99901018   -1315.0737    13.151929      21836.3    3.1862047    27.950721 
    8840    1.0006452   -1315.0653    12.173112    21837.026    3.1860987    27.951031 
    8850    1.0014342    -1315.056    9.6818664    21838.758     3.185846     27.95177 
    8860     1.001371   -1315.0459    5.9987735    21841.287    3.1854771    27.952849 
    8870    1.0004779   -1315.0347     1.592596    21844.304    3.1850371    27.954136 
    8880   0.99880133   -1315.0225   -2.9804617    21847.444    3.1845794    27.955475 
    8890   0.99640656   -1315.0092   -7.1475573    21850.326    3.1841594    27.956704 
    8900   0.99337281    -1314.995   -10.390778    21852.606    3.1838271    27.957677 
    8910   0.98978845   -1314.9802   -12.310621    21854.017    3.1836216    27.958279 
    8920   0.98574654   -1314.9647   -12.674046    21854.403    3.1835654    27.958443 
    8930   0.98134082   -1314.9487   -11.441872    21853.737    3.1836624    27.958159 
    8940   0.97666196   -1314.9321   -8.7727435    21852.125    3.1838973    27.957471 
    8950   0.97179422   -1314.9148   -5.0033315    21849.792    3.1842372    27.956476 
    8960    0.9668121   -1314.8968  -0.60696991    21847.054    3.1846363    27.955309 
    8970   0.96177717   -1314.8779    3.8647348    21844.276    3.1850412    27.954124 
    8980   0.95673512   -1314.8583    7.8506044     21841.83    3.1853979     27.95308 
[...]
   37860    120.12833   -1040.5148    10126.957    19279.494    3.6087525    26.814222 
   37870    119.15162   -1040.0936    10126.336    19280.218    3.6086168    26.814558 
   37880    118.20814   -1039.8147    10125.329    19281.008    3.6084691    26.814924 
   37890    117.35889   -1039.5713    10124.235    19281.862    3.6083093     26.81532 
   37900     116.6363   -1039.4412    10122.261    19282.779    3.6081377    26.815745 
   37910    116.05224   -1039.4278    10119.296    19283.758    3.6079545    26.816199 
   37920    115.60382   -1039.3213    10116.793    19284.797    3.6077601    26.816681 
   37930    115.28572   -1039.4519     10112.42    19285.894    3.6075549    26.817189 
   37940    115.10325   -1039.5051    10108.266    19287.047    3.6073392    26.817724 
   37950    115.07263   -1039.8229    10101.715    19288.253    3.6071136    26.818283 
   37960    115.21984   -1040.2475    10093.557    19289.508    3.6068789    26.818864 
   37970    115.57354    -1040.749    10083.701    19290.808    3.6066359    26.819467 
   37980    116.14758   -1041.2532    10072.499    19292.146    3.6063857    26.820087 
   37990    116.93034    -1042.289    10056.334    19293.517    3.6061295    26.820722 
   38000     117.8824   -1043.3632    10039.004    19294.911    3.6058689    26.821368 
   38010    118.93736   -1044.4614      10021.2     19296.32    3.6056056    26.822021 
   38020     120.0179    -1045.529     10004.02    19297.733    3.6053416    26.822676 
   38030    121.05191   -1046.3719    9989.5353    19299.142    3.6050784    26.823328 
   38040    121.97959   -1047.0577    9977.8694    19300.538    3.6048177    26.823975 
   38050     122.7631   -1047.4864    9970.1329    19301.915    3.6045606    26.824613 
   38060    123.39086   -1047.3707    9968.5628    19303.269    3.6043077     26.82524 
   38070    123.87095   -1047.0611    9970.7814    19304.599    3.6040594    26.825856 
   38080    124.22248   -1046.4519    9977.4759    19305.907    3.6038152    26.826462 
   38090    124.46898   -1045.5886    9988.2517    19307.196    3.6035745    26.827059 
   38100    124.62815   -1044.6547    10001.742    19308.473    3.6033362    26.827651 
   38110    124.71399   -1043.4405    10019.299    19309.745    3.6030989     26.82824 
   38120    124.74134   -1041.9197    10040.895    19311.021    3.6028608    26.828831 
   38130    124.72664   -1040.1319    10065.844    19312.313    3.6026197    26.829429 
   38140    124.69326   -1038.5856    10090.012    19313.635    3.6023732    26.830041 
   38150     124.6625   -1036.8421    10115.775    19314.999    3.6021187    26.830673 
   38160    124.64257   -1035.2134    10140.339     19316.42    3.6018538    26.831331 
   38170    124.62112   -1033.6376    10163.685     19317.91     3.601576     26.83202 
   38180    124.56883    -1031.996    10186.406    19319.481     3.601283    26.832748 
   38190    124.45008   -1030.4431    10207.377    19321.147    3.6009726    26.833519 
   38200    124.23203   -1029.0246    10226.336    19322.917    3.6006427    26.834339 
   38210    123.89669   -1027.5478     10244.68    19324.802    3.6002914    26.835211 
   38220    123.44652   -1026.1086     10261.67    19326.812    3.5999171    26.836141 
   38230    122.91354   -1024.6412      10277.5    19328.954    3.5995182    26.837133 
   38240    122.36124   -1023.1952    10291.342    19331.236    3.5990931    26.838189 
   38250    121.87125   -1022.0664    10300.467    19333.666    3.5986408    26.839314 
   38260    121.53249   -1021.3908    10303.195    19336.248    3.5981603    26.840508 
   38270    121.42195   -1021.1444     10299.04    19338.982    3.5976517    26.841773 
   38280    121.59363   -1021.3737    10287.267    19341.865    3.5971154    26.843107 
   38290    122.06301   -1022.2971    10266.267     19344.89    3.5965529    26.844506 
   38300    122.80288   -1023.6608    10238.072    19348.045    3.5959664    26.845966 
   38310    123.75157   -1025.2667    10204.674    19351.315    3.5953588    26.847478 
   38320     124.8153   -1027.1225    10166.892     19354.68    3.5947338    26.849034 
   38330    125.87849   -1029.0864    10126.755    19358.119    3.5940951    26.850624 
   38340    126.81664   -1031.4494    10083.345     19361.61     3.593447    26.852238 
   38350    127.50707   -1033.4015    10043.333     19365.13    3.5927938    26.853865 
   38360    127.84776   -1035.2426    10005.478    19368.656    3.5921398    26.855495 
   38370     127.7687   -1036.7504    9971.8324    19372.168    3.5914887    26.857118 
   38380    127.24897   -1037.8635    9942.9029    19375.646    3.5908439    26.858725 
   38390    126.32608   -1038.7356    9917.2561    19379.076    3.5902083     26.86031 
   38400    125.09673   -1039.1854    9895.4214    19382.444    3.5895845    26.861866 
   38410    123.70986   -1039.7537    9872.7315    19385.737    3.5889747    26.863387 
   38420    122.35294   -1040.2304    9849.8025    19388.944     3.588381    26.864869 
   38430    121.21911   -1041.2151    9821.8782    19392.053    3.5878059    26.866304 
   38440    120.46801   -1042.5963    9789.4947    19395.047    3.5872519    26.867687 
   38450     120.1887   -1044.2486    9753.6444    19397.911    3.5867223    26.869009 
   38460     120.3769    -1046.247    9714.2553    19400.625    3.5862205    26.870262 
   38470     120.9373   -1048.5022    9672.6763    19403.168    3.5857505    26.871437 
   38480    121.71707   -1050.6878    9632.1542    19405.519    3.5853161    26.872522 
   38490    122.54077   -1052.8502    9593.4944    19407.656    3.5849214    26.873508 
   38500     123.2439   -1054.8203    9558.9835    19409.558    3.5845701    26.874386 
   38510    123.69676    -1056.142    9532.7036    19411.208    3.5842653    26.875147 
   38520    123.82238   -1057.2286    9512.3791    19412.593    3.5840096    26.875787 
   38530    123.59628   -1057.6214    9501.3658    19413.704    3.5838046    26.876299 
   38540    123.04108   -1057.5807    9497.6284    19414.535    3.5836512    26.876683 
   38550    122.21879   -1056.8978    9502.0702    19415.086    3.5835495    26.876937 
   38560     121.2149   -1056.1026    9510.2717     19415.36    3.5834989    26.877063 
   38570    120.12717   -1055.5654     9518.843    19415.363    3.5834983    26.877065 
   38580    119.04965   -1054.4202    9532.9687    19415.102    3.5835465    26.876944 
   38590    118.06553   -1053.4804    9546.2479    19414.586    3.5836417    26.876706 
   38600    117.24805   -1052.7116    9558.2408    19413.823    3.5837825    26.876354 
   38610    116.66014   -1052.2407    9567.4951    19412.822    3.5839674    26.875892 
   38620    116.34753   -1051.9771    9574.1877    19411.587    3.5841953    26.875322 
   38630    116.33636    -1052.053    9577.1438    19410.126    3.5844652    26.874648 
   38640    116.62697    -1052.421    9576.6826    19408.439    3.5847767    26.873869 
   38650    117.18471   -1053.1352    9572.6678    19406.529    3.5851295    26.872988 
   38660    117.95017   -1054.1701    9565.7606    19404.394    3.5855239    26.872003 
   38670    118.84549   -1055.3054    9558.1276    19402.033    3.5859604    26.870912 
   38680     119.7858   -1056.3642    9551.7017    19399.441    3.5864394    26.869716 
   38690      120.687   -1057.3203    9547.3384    19396.617    3.5869615    26.868412 
   38700    121.47394    -1057.818    9548.1019    19393.561    3.5875268    26.867001 
   38710    122.08419   -1058.3295    9551.1975    19390.273    3.5881351    26.865482 
   38720    122.46667   -1058.4817    9559.5625    19386.757    3.5887859    26.863858 
   38730    122.58774    -1058.241    9573.6441    19383.019     3.589478    26.862132 
   38740    122.43192   -1057.7421    9592.5594    19379.068    3.5902098    26.860306 
   38750    122.00821   -1056.6327    9618.6255    19374.916    3.5909793    26.858388 
   38760    121.34767   -1055.3226    9648.6491    19370.577    3.5917835    26.856383 
   38770    120.50716   -1053.8111     9682.115    19366.071    3.5926193      26.8543 
   38780    119.55989   -1052.1645    9717.9374    19361.416    3.5934831    26.852148 
   38790    118.57823   -1050.4439     9755.062    19356.632    3.5943712    26.849937 
   38800    117.62401   -1048.7419    9792.3268    19351.741    3.5952797    26.847675 
   38810    116.74512   -1046.8594    9830.7813    19346.763    3.5962047    26.845373 
   38820    115.97188   -1045.3823    9866.1647    19341.721    3.5971422     26.84304 
   38830    115.32852   -1043.9791    9900.7011    19336.633    3.5980886    26.840687 
   38840    114.83863   -1042.6624    9934.2372     19331.52    3.5990403    26.838321 
   38850    114.52842   -1041.4986    9966.2223      19326.4    3.5999938    26.835951 
   38860    114.42614   -1040.5826    9995.9209     19321.29    3.6009459    26.833585 
   38870    114.54992   -1039.8725    10023.611    19316.206    3.6018936    26.831232 
   38880    114.90457   -1039.1372    10051.009    19311.164    3.6028341    26.828897 
   38890    115.47909   -1038.5681    10076.975    19306.178    3.6037645    26.826588 
   38900    116.25155   -1038.0523    10102.496    19301.262    3.6046824    26.824311 
   38910     117.1958   -1037.6047    10127.601     19296.43    3.6055851    26.822072 
   38920    118.28528   -1037.1569    10152.792    19291.694    3.6064702    26.819877 
   38930    119.48469   -1036.5488    10179.085    19287.068    3.6073352    26.817734 
   38940     120.7498   -1036.2404    10203.081    19282.565    3.6081776    26.815646 
   38950     122.0289   -1035.8354    10227.337    19278.198    3.6089949    26.813622 
   38960    123.26217   -1035.2502    10252.259    19273.979    3.6097849    26.811666 
   38970    124.38646   -1034.9313    10274.649    19269.921    3.6105452    26.809784 
   38980    125.33687   -1034.2772     10298.75    19266.034    3.6112736    26.807981 
   38990    126.05627    -1033.638    10322.277    19262.331    3.6119678    26.806264 
   39000    126.50086    -1032.997    10345.548    19258.824    3.6126255    26.804637 
   39010    126.64749   -1031.9593    10371.441    19255.524    3.6132447    26.803105 
   39020    126.50466        -1031     10396.57    19252.444    3.6138228    26.801676 
   39030    126.11602   -1029.7284    10423.375    19249.596    3.6143574    26.800355 
   39040     125.5473   -1028.3465    10449.942    19246.993    3.6148462    26.799147 
   39050    124.87562   -1027.1443    10473.678    19244.649    3.6152866    26.798058 
   39060    124.16534   -1025.9755    10495.109    19242.573    3.6156765    26.797095 
   39070    123.46209   -1025.0111    10512.759    19240.777     3.616014    26.796261 
   39080    122.78091   -1024.3546    10525.863    19239.268    3.6162976    26.795561 
   39090    122.11678   -1023.6884    10536.816    19238.052    3.6165262    26.794996 
   39100    121.45189   -1023.3903    10543.243    19237.133     3.616699    26.794569 
   39110    120.77098   -1022.9329    10549.074    19236.513    3.6168156    26.794282 
   39120    120.07281   -1022.6947    10551.778    19236.193    3.6168757    26.794133 
   39130    119.37227   -1022.2668    10554.139    19236.174    3.6168793    26.794124 
   39140    118.70279    -1022.178    10552.222    19236.455    3.6168264    26.794255 
   39150    118.10717   -1022.2602    10546.872    19237.034    3.6167176    26.794523 
   39160     117.6265   -1022.8124    10535.687    19237.905    3.6165539    26.794928 
   39170    117.28438   -1023.3752    10521.677    19239.062    3.6163364    26.795465 
   39180    117.07957   -1024.1702     10503.27    19240.495     3.616067     26.79613 
   39190    116.98921   -1025.1225    10481.182    19242.194    3.6157479    26.796919 
   39200    116.97067   -1026.3794    10454.737    19244.144    3.6153815    26.797824 
   39210    116.96921   -1027.9033    10424.635     19246.33    3.6149707    26.798839 
   39220    116.92653   -1029.2133    10394.672    19248.736     3.614519    26.799955 
   39230    116.79193    -1030.774    10361.988    19251.343    3.6140295    26.801165 
   39240    116.52709   -1032.1556    10329.905    19254.133    3.6135058     26.80246 
   39250    116.10709   -1033.5753    10297.142    19257.087    3.6129514    26.803831 
   39260    115.53116   -1034.8489    10265.168    19260.189    3.6123696     26.80527 
   39270    114.82498   -1036.0023    10233.925    19263.418     3.611764    26.806768 
   39280     114.0435   -1037.2273    10202.129    19266.759    3.6111378    26.808317 
   39290     113.2601   -1038.3587    10170.901    19270.192    3.6104944     26.80991 
   39300    112.55819   -1039.4658    10139.644    19273.701     3.609837    26.811537 
   39310    112.01771   -1040.7238    10106.969    19277.269    3.6091689    26.813191 
   39320    111.69918    -1041.932    10074.087    19280.877    3.6084935    26.814864 
   39330    111.64424   -1043.4229    10038.528    19284.508    3.6078142    26.816547 
   39340    111.87063   -1045.2169     10000.09    19288.141    3.6071346    26.818231 
   39350    112.37395   -1047.1908    9959.7096    19291.756    3.6064586    26.819906 
   39360    113.12995   -1049.3223    9917.8124    19295.332    3.6057903    26.821563 
   39370    114.08528   -1051.4521     9875.971    19298.845    3.6051339    26.823191 
   39380    115.16661   -1053.6885    9834.1197    19302.273    3.6044936    26.824779 
   39390    116.28261   -1055.6222    9795.9751    19305.594    3.6038735    26.826317 
   39400    117.33407   -1057.3963    9761.4864    19308.788    3.6032774    26.827797 
   39410     118.2283   -1058.7677    9733.2578    19311.837    3.6027085    26.829209 
   39420     118.8884    -1059.831    9711.3484    19314.725    3.6021698    26.830546 
   39430    119.27054   -1060.3041    9698.1636    19317.443    3.6016631    26.831804 
   39440     119.3715   -1060.0044    9695.0734    19319.982    3.6011896     26.83298 
   39450    119.23145   -1059.4644    9698.1136    19322.344    3.6007496    26.834073 
   39460    118.93274    -1058.455    9708.3166    19324.529    3.6003424    26.835085 
   39470    118.58598    -1057.144    9723.6918    19326.545    3.5999669    26.836018 
   39480    118.32503   -1055.7974    9741.4338      19328.4    3.5996213    26.836876 
   39490    118.28713   -1054.4644    9760.2128    19330.105    3.5993038    26.837665 
   39500    118.58652   -1053.1293    9779.2046     19331.67    3.5990123     26.83839 
   39510    119.28741   -1052.2895    9794.1367    19333.108    3.5987448    26.839055 
   39520    120.37089   -1051.6549    9806.3679    19334.426    3.5984995    26.839665 
   39530    121.73044   -1051.2504     9815.299    19335.631    3.5982751    26.840223 
   39540     123.1934   -1051.1151    9820.5719     19336.73    3.5980705    26.840731 
   39550     124.5688     -1051.14    9823.3035    19337.726    3.5978853    26.841192 
   39560    125.68385   -1051.2002    9825.1409     19338.62    3.5977189    26.841606 
   39570     126.4069   -1050.9845    9829.2911    19339.415     3.597571    26.841974 
   39580    126.65652    -1050.422    9837.3279    19340.113    3.5974412    26.842297 
   39590    126.39694   -1049.3822    9851.0315     19340.72    3.5973284    26.842577 
   39600    125.63494   -1048.0323    9869.7233    19341.242    3.5972312    26.842819 
   39610    124.42579   -1046.0936    9895.3739    19341.692    3.5971476    26.843027 
   39620     122.8671   -1043.9421    9924.9078    19342.082     3.597075    26.843207 
   39630    121.09583   -1041.2537     9959.679     19342.43    3.5970103    26.843368 
   39640    119.27881    -1038.663    9994.0476    19342.755    3.5969499    26.843519 
   39650    117.59306   -1036.1878    10026.504    19343.075    3.5968904    26.843667 
   39660    116.20307   -1034.1549    10053.456    19343.408    3.5968285    26.843821 
   39670    115.23737   -1032.6512    10073.321    19343.769    3.5967614    26.843988 
   39680    114.76132   -1031.6547    10085.803    19344.168    3.5966872    26.844172 
   39690    114.76488   -1031.3607    10089.735    19344.612    3.5966046    26.844378 
   39700    115.17368   -1031.1905    10089.931    19345.103    3.5965132    26.844605 
   39710    115.86669   -1031.7326    10083.465    19345.641    3.5964132    26.844854 
   39720    116.70797   -1031.9884    10078.538    19346.223    3.5963051    26.845123 
   39730    117.57538    -1032.459    10072.701    19346.845    3.5961895    26.845411 
   39740    118.38362   -1032.8685    10068.494    19347.504     3.596067    26.845715 
   39750    119.09828   -1032.9928    10067.612    19348.198    3.5959381    26.846036 
   39760     119.7275   -1033.0394    10068.301    19348.925    3.5958028    26.846373 
   39770    120.30783   -1033.1582    10068.888    19349.687    3.5956612    26.846725 
   39780    120.88813   -1033.1229    10070.188    19350.484    3.5955132    26.847094 
   39790    121.51532   -1033.2196    10069.481    19351.315    3.5953588    26.847478 
   39800    122.22326   -1033.4452    10066.193     19352.18     3.595198    26.847878 
   39810    123.02827   -1033.8938    10059.227    19353.078    3.5950313    26.848293 
   39820    123.93319   -1034.6908    10047.429    19354.003    3.5948593    26.848721 
   39830    124.93137   -1035.7528    10031.241    19354.951    3.5946834    26.849159 
   39840    126.00257   -1037.0274    10011.051    19355.911    3.5945052    26.849603 
   39850    127.10761   -1038.7083    9985.7456    19356.872    3.5943266    26.850047 
   39860    128.18145    -1040.291    9959.3027    19357.821    3.5941504    26.850486 
   39870    129.13108   -1042.1429     9929.863    19358.743    3.5939792    26.850913 
   39880     129.8472   -1043.9477    9900.4927    19359.623    3.5938159    26.851319 
   39890    130.21281   -1045.4039    9874.1888    19360.445    3.5936633    26.851699 
   39900    130.12296   -1046.4691     9852.031    19361.194    3.5935242    26.852046 
   39910    129.50934    -1047.212    9834.1001     19361.86    3.5934007    26.852354 
   39920    128.36502    -1047.631    9820.6974    19362.432    3.5932946    26.852618 
   39930    126.76554   -1047.9761    9810.1664    19362.903    3.5932071    26.852836 
   39940    124.86689   -1047.5009    9807.6714    19363.269    3.5931393    26.853005 
   39950    122.88005   -1046.9513    9807.9982    19363.528    3.5930911    26.853125 
   39960    121.00942   -1046.3572     9810.885    19363.681    3.5930627    26.853195 
   39970    119.39639   -1045.6898    9816.3882    19363.731    3.5930535    26.853218 
   39980    118.08455    -1045.015    9823.7343     19363.68     3.593063    26.853195 
   39990    117.04964   -1044.2871    9832.8196    19363.533    3.5930901    26.853127 
   40000     116.2459   -1043.7532    9841.4792    19363.296    3.5931342    26.853018 
Loop time of 4.80735 on 1 procs for 20000 steps with 500 atoms

Performance: 359.450 ns/day, 0.067 hours/ns, 4160.299 timesteps/s
98.0% CPU use with 1 MPI tasks x no OpenMP threads

MPI task timing breakdown:
Section |  min time  |  avg time  |  max time  |%varavg| %total
---------------------------------------------------------------
Pair    | 4.0834     | 4.0834     | 4.0834     |   0.0 | 84.94
Neigh   | 0.10572    | 0.10572    | 0.10572    |   0.0 |  2.20
Comm    | 0.15157    | 0.15157    | 0.15157    |   0.0 |  3.15
Output  | 0.017303   | 0.017303   | 0.017303   |   0.0 |  0.36
Modify  | 0.39539    | 0.39539    | 0.39539    |   0.0 |  8.22
Other   |            | 0.05396    |            |       |  1.12

Nlocal:    500 ave 500 max 500 min
Histogram: 1 0 0 0 0 0 0 0 0 0
Nghost:    1418 ave 1418 max 1418 min
Histogram: 1 0 0 0 0 0 0 0 0 0
Neighs:    13493 ave 13493 max 13493 min
Histogram: 1 0 0 0 0 0 0 0 0 0

Total # of neighbors = 13493
Ave neighs/atom = 26.986
Neighbor list builds = 166
Dangerous builds = 0
Total wall time: 0:00:09
