LAMMPS (7 Aug 2019)
Reading data file ...
  orthogonal box = (-1.4719 -1.4719 -1.4719) to (26.4719 26.4719 26.4719)
  1 by 1 by 1 MPI processor grid
  reading atoms ...
  500 atoms
  reading velocities ...
  500 velocities
  read_data CPU = 0.002244 secs
Neighbor list info ...
  update every 1 steps, delay 10 steps, check yes
  max neighbors/atom: 2000, page size: 100000
  master list distance cutoff = 8
  ghost atom cutoff = 8
  binsize = 4, bins = 7 7 7
  1 neighbor lists, perpetual/occasional/extra = 1 0 0
  (1) pair lj/cut, perpetual
      attributes: half, newton on
      pair build: half/bin/atomonly/newton
      stencil: half/bin/3d/newton
      bin: standard
Setting up Verlet run ...
  Unit style    : real
  Current step  : 0
  Time step     : 1
Per MPI rank memory allocation (min/avg/max) = 3.998 | 3.998 | 3.998 Mbytes
Step Temp PotEng Press Volume Density Lx 
       0   0.94924373   -1315.7856    26.487323    21820.062    3.1885758    27.943791 
      10   0.94787706   -1315.7834    23.928279    21821.766    3.1883267    27.944519 
      20   0.94674842    -1315.781    16.704018    21826.551    3.1876277    27.946561 
      30   0.94593868   -1315.7771    6.2470607    21833.489    3.1866148    27.949522 
      40     0.945552   -1315.7712    -5.384268    21841.235    3.1854847    27.952827 
      50    0.9456983   -1315.7632   -15.921761    21848.291     3.184456    27.955836 
      60   0.94646803    -1315.754   -23.330063    21853.295    3.1837268    27.957971 
      70   0.94789912   -1315.7446   -26.189606     21855.29    3.1834361    27.958821 
      80   0.94993829   -1315.7357    -23.95544    21853.906    3.1836377    27.958231 
      90   0.95240494   -1315.7268   -17.054768    21849.432    3.1842896    27.956323 
     100   0.95497404   -1315.7168    -6.810587    21842.761    3.1852622    27.953478 
     110   0.95719908   -1315.7049    4.7988365    21835.215    3.1863629    27.950258 
     120   0.95858609   -1315.6909    15.510705    21828.292    3.1873735    27.947304 
     130   0.95870322   -1315.6756     23.21756    21823.368    3.1880926    27.945203 
     140   0.95728399     -1315.66    26.391605    21821.434    3.1883752    27.944377 
     150   0.95427966   -1315.6447    24.400835    21822.896    3.1881616    27.945001 
     160   0.94984372   -1315.6293    17.641716    21827.499    3.1874893    27.946966 
     170   0.94426693   -1315.6131     7.455464    21834.375    3.1864855      27.9499 
     180   0.93790033   -1315.5952   -4.1510336    21842.215    3.1853418    27.953245 
     190   0.93109463   -1315.5755    -14.91222    21849.522    3.1842765    27.956362 
     200   0.92416393   -1315.5549   -22.747841    21854.909    3.1834917    27.958659 
     210   0.91736786   -1315.5345   -26.155726     21857.36    3.1831346    27.959704 
     220   0.91090348   -1315.5151   -24.486291    21856.436    3.1832692     27.95931 
     230   0.90490128   -1315.4962   -18.058728    21852.353    3.1838641    27.957569 
     240   0.89942326    -1315.477   -8.1038627    21845.942    3.1847984    27.954834 
     250   0.89446361   -1315.4565    3.4590081    21838.489    3.1858852    27.951655 
     260   0.88995458   -1315.4344    14.380227    21831.487     3.186907    27.948668 
     270   0.88578039   -1315.4113    22.514934     21826.34    3.1876585    27.946471 
     280   0.88180101   -1315.3884    26.253001    21824.093    3.1879867    27.945512 
     290   0.87788241   -1315.3663     24.85114    21825.226    3.1878213    27.945995 
     300    0.8739258   -1315.3448    18.588809    21829.557    3.1871888    27.947844 
     310   0.86988582   -1315.3229    8.7092286    21836.284     3.186207    27.950714 
     320   0.86577224   -1315.2997   -2.8396949    21844.135    3.1850618    27.954064 
     330   0.86163602   -1315.2751   -13.801631    21851.622    3.1839705    27.957257 
     340   0.85754654   -1315.2497   -22.055744    21857.331    3.1831389    27.959692 
     350   0.85356843   -1315.2247   -26.018742    21860.194     3.182722    27.960912 
     360   0.84974398   -1315.2008   -24.935071    21859.697    3.1827943    27.960701 
     370   0.84608448   -1315.1778   -19.012217    21855.982    3.1833353    27.959117 
     380   0.84257061   -1315.1546   -9.3834498    21849.816    3.1842337    27.956487 
     390   0.83916038   -1315.1303    2.0972004    21842.444    3.1853084    27.953342 
     400   0.83580141   -1315.1044    13.199541    21835.346    3.1863438    27.950314 
     410   0.83244429   -1315.0776    21.746689    21829.953     3.187131    27.948013 
     420   0.82905361   -1315.0509    26.049577    21827.362    3.1875094    27.946907 
     430   0.82561447    -1315.025    25.254175    21828.125    3.1873979    27.947233 
     440    0.8221335   -1314.9996    19.520215     21832.14    3.1868118    27.948946 
     450   0.81863489   -1314.9741    9.9872737     21838.67    3.1858589    27.951732 
     460   0.81515294   -1314.9473   -1.4632173    21846.489    3.1847186    27.955068 
     470   0.81172314    -1314.919   -12.591938    21854.122    3.1836064    27.958323 
     480   0.80837363   -1314.8899    -21.24398    21860.131    3.1827312    27.960885 
     490   0.80511897   -1314.8609   -25.758959    21863.397    3.1822557    27.962278 
     500     0.801957   -1314.8329   -25.276257    21863.337    3.1822644    27.962252 
     510   0.79886925   -1314.8058   -19.889319    21860.014    3.1827482    27.960836 
     520   0.79582472   -1314.7787   -10.628644    21854.125    3.1836058    27.958324 
     530   0.79278621   -1314.7505    0.7242788    21846.869    3.1846633     27.95523 
     540   0.78971792   -1314.7208    11.966824    21839.711     3.185707    27.952176 
     550   0.78659293   -1314.6902    20.897469      21834.1    3.1865257    27.949782 
     560   0.78339903   -1314.6594    25.753316    21831.183    3.1869515    27.948538 
     570   0.78014166   -1314.6295    25.571245    21831.583     3.186893    27.948708 
     580   0.77684337   -1314.6004    20.389063    21835.277    3.1863539    27.950285 
     590   0.77353993   -1314.5712      11.2372    21841.598    3.1854317    27.952982 
     600   0.77027381    -1314.541 -0.076891335    21849.369    3.1842988    27.956296 
     610   0.76708653   -1314.5094   -11.338732    21857.132    3.1831678    27.959607 
     620   0.76401134    -1314.477   -20.365943    21863.433    3.1822505    27.962293 
     630   0.76106759   -1314.4447   -25.425291    21867.103    3.1817164    27.963858 
     640   0.75825805   -1314.4135   -25.552407    21867.489    3.1816602    27.964022 
     650   0.75556934   -1314.3833   -20.724985    21864.574    3.1820844     27.96278 
     660   0.75297561   -1314.3534   -11.866341    21858.984    3.1828981    27.960397 
     670   0.75044467   -1314.3227  -0.67899116    21851.867    3.1839348    27.957362 
     680   0.74794536   -1314.2907    10.669413    21844.668    3.1849841    27.954291 
     690   0.74545497   -1314.2577    19.959703    21838.849    3.1858328    27.951809 
     700   0.74296493   -1314.2248    25.360237    21835.605     3.186306    27.950425 
     710   0.74048395   -1314.1927    25.800769    21835.629    3.1863025    27.950435 
     720   0.73803769   -1314.1616    21.195456    21838.978    3.1858139    27.951864 
     730   0.73566529   -1314.1308    12.460517    21845.058    3.1849272    27.954458 
     740   0.73341341   -1314.0993     1.322181    21852.746    3.1838067    27.957737 
     750   0.73132916   -1314.0665   -10.037733    21860.606     3.182662    27.961088 
     760    0.7294533    -1314.033   -19.416158     21867.17    3.1817066    27.963886 
     770   0.72781515   -1313.9997   -25.011562    21871.226    3.1811166    27.965615 
     780   0.72643007   -1313.9676   -25.757461    21872.049    3.1809969    27.965966 
     790   0.72530004   -1313.9369   -21.514362    21869.543    3.1813613    27.964898 
     800   0.72441702   -1313.9068   -13.094145     21864.26    3.1821301    27.962646 
     810   0.72376856   -1313.8764   -2.1139171     21857.29    3.1831449    27.959674 
     820    0.7233445   -1313.8449    9.3012356    21850.052    3.1841993    27.956587 
     830    0.7231434   -1313.8127    18.921879    21844.019    3.1850787    27.954014 
     840   0.72317747   -1313.7808    24.853272     21840.43    3.1856022    27.952483 
     850   0.72347484   -1313.7502    25.920636    21840.045    3.1856583    27.952319 
     860   0.72407884   -1313.7209    21.913353    21843.001    3.1852272     27.95358 
     870   0.72504427   -1313.6925    13.628804    21848.782    3.1843844    27.956046 
     880    0.7264384   -1313.6394    2.8454629    21856.328     3.183285    27.959264 
     890   0.72833882   -1313.5857    -8.471396    21864.247     3.182132     27.96264 
     900   0.73077636   -1313.5561   -18.267089    21871.072     3.181139    27.965549 
     910   0.73380177    -1313.478   -24.218361    21875.544    3.1804887    27.967455 
     920   0.73742118   -1313.4506   -25.776725    21876.879    3.1802945    27.968024 
     930   0.74162924   -1313.4251   -22.352289    21874.882    3.1805849    27.967173 
     940   0.74641723   -1313.4009   -14.600502    21869.997    3.1812953    27.965091 
     950    0.7517656    -1313.377   -4.0083159     21863.23    3.1822801    27.962207 
     960   0.75764898   -1313.3526    7.3779898     21855.95      3.18334    27.959103 
     970   0.76404156   -1313.3278    17.339195    21849.629    3.1842609    27.956407 
     980    0.7709219   -1313.3035    23.917418    21845.549    3.1848557    27.954667 
     990   0.77827614   -1313.2807    25.812032    21844.554    3.1850007    27.954242 
    1000   0.78609927   -1313.2596     22.64898    21846.888    3.1846605    27.955238 
    1010   0.79439396   -1313.2398    15.058806    21852.142    3.1838947    27.957479 
    1020   0.80316738   -1313.2201    4.5440345    21859.339    3.1828464    27.960548 
    1030   0.81243817   -1313.1755   -6.6907272     21867.13    3.1817124    27.963869 
    1040   0.82219597    -1313.155   -16.752716    21874.057     3.180705    27.966822 
    1050   0.83242843   -1313.1105   -23.405661    21878.819    3.1800127    27.968851 
    1060   0.84311368   -1313.0675   -25.525197    21880.551    3.1797609    27.969589 
    1070   0.85421498   -1313.0755   -23.007321    21878.976    3.1799898    27.968918 
    1080    0.8656712   -1313.0603   -15.894591    21874.432    3.1806504    27.966982 
    1090   0.87741815   -1313.0701   -5.8430452    21867.836    3.1816098     27.96417 
    1100   0.88938379   -1313.0548      5.50365    21860.493    3.1826784     27.96104 
    1110   0.90148517   -1313.0391    15.791377    21853.868    3.1836432    27.958215 
    1120   0.91365905   -1313.0481    22.863254    21849.277    3.1843122    27.956257 
    1130   0.92584041   -1313.0338    25.611638    21847.638    3.1845512    27.955558 
    1140   0.93802378   -1313.0212    23.338866    21849.304    3.1843083    27.956268 
    1150   0.95014784   -1313.0099    16.500868     21853.98    3.1836269    27.958263 
    1160   0.96219469   -1312.9991    6.4522326    21860.786    3.1826358    27.961165 
    1170   0.97415728   -1312.9633   -4.6832109    21868.425     3.181524    27.964421 
    1180   0.98604627   -1312.8781   -14.594772    21875.465    3.1805001    27.967422 
    1190   0.99785194   -1312.8672   -22.102413    21880.606    3.1797528    27.969613 
    1200    1.0095585   -1312.8578   -25.337495    21882.889    3.1794211    27.970585 
    1210    1.0210967   -1312.8507    -23.68476    21881.894    3.1795657    27.970161 
    1220    1.0323988   -1312.8455   -17.462462    21877.836    3.1801554    27.968432 
    1230    1.0433783   -1312.8415   -7.8631028    21871.525    3.1810731    27.965743 
    1240    1.0539296   -1312.8376    3.2635891    21864.204    3.1821383    27.962622 
    1250    1.0639453   -1312.8585    13.617779    21857.302    3.1831431    27.959679 
    1260    1.0732915   -1312.8555    21.459645    21852.164    3.1838915    27.957488 
    1270    1.0818413   -1312.8542    25.090436    21849.799    3.1842362    27.956479 
    1280    1.0894745   -1312.8553    23.791168    21850.671    3.1841092    27.956851 
    1290    1.0960819   -1312.8587    17.821166    21854.611     3.183535    27.958532 
    1300    1.1015746   -1312.8144    8.6638209    21860.852    3.1826261    27.961193 
    1310    1.1058796   -1312.8198   -2.4655182      21868.2    3.1815568    27.964325 
    1320    1.1089241   -1312.8258   -13.110829    21875.229    3.1805345    27.967321 
    1330    1.1106809   -1312.8329   -21.216807    21880.561    3.1797594    27.969593 
    1340    1.1111646   -1312.8668    -25.38152    21883.146    3.1793838    27.970695 
    1350    1.1104545   -1312.9037   -24.664711    21882.448    3.1794853    27.970397 
    1360    1.1086748    -1312.919   -19.057398    21878.563    3.1800499    27.968742 
    1370    1.1059403   -1312.9607   -9.9292466    21872.217    3.1809725    27.966037 
    1380    1.1025129   -1313.0281   0.97783834    21864.586    3.1820826    27.962785 
    1390    1.0986006   -1313.0714    11.840131     21857.09     3.183174    27.959589 
    1400    1.0944806   -1313.0912    20.521603    21851.137    3.1840411     27.95705 
    1410    1.0904009   -1313.1128     25.17527    21847.837    3.1845221    27.955643 
    1420    1.0865961    -1313.137    24.881932    21847.785    3.1845296    27.955621 
    1430    1.0832632   -1313.1637    19.703765    21850.943    3.1840695    27.956967 
    1440    1.0805566    -1313.192    10.670787    21856.641    3.1832394    27.959397 
    1450    1.0785884    -1313.221   -0.4341492    21863.716    3.1822093    27.962414 
    1460    1.0774283   -1313.2256   -11.292674    21870.736    3.1811879    27.965406 
    1470    1.0771076   -1313.2554   -20.097158    21876.293    3.1803798    27.967775 
    1480    1.0776264   -1313.2868    -25.00978    21879.251    3.1799499    27.969035 
    1490    1.0789569   -1313.3452   -25.239363    21878.969    3.1799909    27.968915 
    1500     1.081031   -1313.3813   -20.449047    21875.425    3.1805059    27.967405 
    1510     1.083745   -1313.4188   -11.703327    21869.243    3.1814051     27.96477 
    1520    1.0869777   -1313.4812  -0.82961826    21861.553    3.1825241    27.961492 
    1530    1.0905887   -1313.5187    10.362767    21853.768    3.1836578    27.958172 
    1540     1.094421    -1313.556    19.541769    21847.329    3.1845962    27.955426 
    1550     1.098346   -1313.6186    24.757901    21843.409    3.1851676    27.953754 
    1560    1.1022365    -1313.658    25.272023    21842.686    3.1852731    27.953446 
    1570    1.1060056   -1313.6989    20.832356    21845.224    3.1849031    27.954528 
    1580    1.1095513   -1313.7404    12.328031    21850.447    3.1841418    27.956756 
    1590    1.1128376   -1313.7814     1.440358    21857.259    3.1831494    27.959661 
    1600    1.1158584   -1313.8215   -9.6974076    21864.255    3.1821308    27.962644 
    1610    1.1186278   -1313.8608   -18.924568    21869.997    3.1812953    27.965091 
    1620    1.1211696   -1313.9004   -24.467765    21873.293     3.180816    27.966496 
    1630    1.1235049   -1313.9411   -25.269625    21873.425    3.1807969    27.966552 
    1640    1.1256432    -1313.983   -21.179377    21870.291    3.1812525    27.965217 
    1650    1.1275762   -1314.0254   -12.979319    21864.426    3.1821059    27.962717 
    1660    1.1292776   -1314.0671   -2.2438013    21856.892    3.1832028    27.959504 
    1670    1.1307066   -1314.1074     8.950383    21849.077    3.1843413    27.956172 
    1680     1.131816   -1314.1466    18.418477    21842.426     3.185311    27.953335 
    1690    1.1325625   -1314.1855     24.29771    21838.156    3.1859339    27.951513 
    1700    1.1329168   -1314.2248    25.425585     21837.02    3.1860996    27.951028 
    1710    1.1328717   -1314.2649    21.581122     21839.16    3.1857874    27.951941 
    1720    1.1324461   -1314.3049    13.530737    21844.081    3.1850698     27.95404 
    1730    1.1316842    -1314.344    2.8674345    21850.744    3.1840985    27.956883 
    1740    1.1306496   -1314.3817   -8.3170185    21857.775    3.1830742    27.959881 
    1750    1.1294161   -1314.4181     -17.8502    21863.732     3.182207     27.96242 
    1760    1.1280563   -1314.4543   -23.898137     21867.38     3.181676    27.963976 
    1770     1.126631   -1314.4911   -25.306742    21867.941    3.1815945    27.964215 
    1780    1.1251807   -1314.5289   -21.810553    21865.233    3.1819885    27.963061 
    1790    1.1237211   -1314.5671    -14.07966    21859.713    3.1827921    27.960707 
    1800    1.1222433   -1314.6046    -3.598868    21852.382    3.1838598    27.957581 
    1810    1.1207199   -1314.6652    7.4534468    21844.597    3.1849945    27.954261 
    1820    1.1191329      -1314.7    17.210402    21837.791    3.1859871    27.951357 
    1830     1.117421   -1314.7343    23.615521    21833.209    3.1866556    27.949402 
    1840    1.1155507    -1314.769    25.402441    21831.674    3.1868798    27.948747 
    1850    1.1135059   -1314.8043    22.219249     21833.41    3.1866264    27.949488 
    1860    1.1112916   -1314.8398    14.701743    21838.007    3.1859556    27.951449 
    1870    1.1089343   -1314.8745    4.3397052    21844.497    3.1850091    27.954218 
    1880    1.1064769   -1314.9077   -6.8307219    21851.543     3.183982    27.957224 
    1890    1.1039703   -1314.9396   -16.635911    21857.707    3.1830842    27.959852 
    1900    1.1014631   -1314.9711   -23.186321    21861.721    3.1824997    27.961563 
    1910    1.0989917   -1315.0031   -25.230078    21862.739    3.1823515    27.961997 
    1920    1.0965721    -1315.036   -22.380291    21860.501    3.1826773    27.961043 
    1930     1.094196   -1315.0693   -15.183766    21855.377    3.1834235    27.958858 
    1940    1.0918306   -1315.1019   -5.0222712    21848.301    3.1844545    27.955841 
    1950    1.0894237    -1315.133    6.1404991    21840.587    3.1855792     27.95255 
    1960    1.0869115   -1315.1625    16.129197    21833.675    3.1865877    27.949601 
    1970    1.0842297   -1315.1912    22.981462    21828.848    3.1872924    27.947541 
    1980    1.0813235   -1315.2199    25.343631    21826.984    3.1875646    27.946746 
    1990    1.0781565   -1315.2489    22.750341    21828.383    3.1873602    27.947343 
    2000    1.0747157   -1315.2778    15.721463    21832.711    3.1867284     27.94919 
    2010    1.0710117   -1315.3057    5.6524552    21839.061    3.1858019    27.951899 
    2020     1.067074   -1315.3317   -5.4746162    21846.137      3.18477    27.954918 
    2030    1.0629426    -1315.356   -15.490695    21852.504     3.183842    27.957633 
    2040    1.0586585   -1315.3792   -22.462383     21856.87     3.183206    27.959495 
    2050    1.0542532   -1315.4023   -25.055369    21858.335    3.1829926     27.96012 
    2060     1.049741   -1315.4257   -22.777581    21856.567    3.1832501    27.959366 
    2070    1.0451159   -1315.4491   -16.066827    21851.863    3.1839354     27.95736 
    2080    1.0403515   -1315.4713   -6.2115543    21845.094     3.184922    27.954473 
    2090    1.0354069   -1315.4915    4.8847398    21837.534    3.1860246    27.951248 
    2100    1.0302353   -1315.5095    15.061292    21830.613    3.1870346    27.948295 
    2110    1.0247947    -1315.526    22.320305     21825.64    3.1877608    27.946172 
    2120     1.019058   -1315.5418    25.228424    21823.545    3.1880668    27.945278 
    2130     1.013021   -1315.5574    23.212066    21824.698    3.1878984     27.94577 
    2140    1.0067067   -1315.5724    16.676844    21828.837     3.187294    27.947537 
    2150    1.0001635   -1315.5859    6.9217191    21835.121    3.1863767    27.950218 
    2160   0.99346046   -1315.5972   -4.1307271    21842.293    3.1853304    27.953278 
    2170   0.98667813   -1315.6061   -14.323365     21848.93    3.1843628    27.956109 
    2180   0.97989878   -1315.6135   -21.686702    21853.717    3.1836654     27.95815 
    2190   0.97319723   -1315.6203   -24.810707    21855.703     3.183376    27.958997 
    2200   0.96663448   -1315.6271   -23.102641    21854.487    3.1835531    27.958479 
    2210   0.96025529   -1315.6335   -16.892849    21850.294     3.184164    27.956691 
    2220   0.95409008   -1315.6387    -7.374645    21843.929    3.1850918    27.953976 
    2230   0.94816064   -1315.6417    3.6136374    21836.624    3.1861574    27.950859 
    2240   0.94248855   -1315.6424    13.933172    21829.794    3.1871543    27.947945 
    2250   0.93710429   -1315.6414    21.559063    21824.767    3.1878884    27.945799 
    2260   0.93205518   -1315.6396    24.985817    21822.519    3.1882167     27.94484 
    2270   0.92741016   -1315.6375    23.536676    21823.488    3.1880751    27.945254 
    2280   0.92325998   -1315.6351    17.504374    21827.485    3.1874914     27.94696 
    2290   0.91971238   -1315.6315    8.0888334    21833.732    3.1865793    27.949626 
    2300   0.91688236   -1315.6258   -2.8526165    21841.018    3.1855163    27.952734 
    2310    0.9148788   -1315.6179   -13.182401    21847.932    3.1845082    27.955684 
    2320   0.91378903   -1315.6087   -20.902801    21853.143    3.1837489    27.957906 
    2330   0.91366345    -1315.599   -24.534701    21855.654    3.1833831    27.958977 
    2340   0.91450268   -1315.5894   -23.388963    21854.999    3.1834785    27.958697 
    2350   0.91624959   -1315.5799   -17.689706    21851.328    3.1840133    27.957132 
    2360   0.91878854   -1315.5694    -8.533095    21845.382      3.18488    27.954596 
    2370   0.92195309   -1315.5573    2.3126976    21838.345    3.1859062    27.951594 
    2380   0.92554181    -1315.543    12.737906    21831.617    3.1868881    27.948723 
    2390    0.9293397   -1315.5272    20.698418    21826.538    3.1876296    27.946555 
    2400   0.93314078   -1315.5109    24.623543    21824.129    3.1879815    27.945527 
    2410   0.93676728   -1315.4945    23.737757    21824.891    3.1878703    27.945852 
    2420   0.94008169    -1315.478    18.221737    21828.706    3.1873131    27.947481 
    2430    0.9429903   -1315.4606    9.1734616    21834.864    3.1864142    27.950108 
    2440   0.94543903   -1315.4414   -1.6208496      21842.2     3.185344    27.953238 
    2450   0.94740377   -1315.4204   -12.050554    21849.323    3.1843056    27.956276 
    2460   0.94887855    -1315.398   -20.096963    21854.887    3.1834949    27.958649 
    2470   0.94986416   -1315.3753   -24.217566    21857.855    3.1830626    27.959915 
    2480   0.95035976   -1315.3529   -23.629951    21857.695    3.1830858    27.959847 
    2490   0.95035861   -1315.3309   -18.452061    21854.488    3.1835529    27.958479 
    2500    0.9498483   -1315.3083   -9.6799069    21848.906    3.1843662    27.956099 
    2510   0.94881492   -1315.2843   0.99402592    21842.086    3.1853606     27.95319 
    2520   0.94724969   -1315.2585    11.496074    21835.404    3.1863354    27.950339 
    2530   0.94515618   -1315.2314    19.770037    21830.212    3.1870932    27.948123 
    2540    0.9425562   -1315.2039    24.185662    21827.572    3.1874787    27.946997 
    2550   0.93949269   -1315.1766    23.871444    21828.047    3.1874093      27.9472 
    2560   0.93602843   -1315.1496    18.895262    21831.595    3.1868913    27.948713 
    2570   0.93224094   -1315.1222    10.249044    21837.572     3.186019    27.951264 
    2580   0.92821405   -1315.0935  -0.35854571    21844.866    3.1849553    27.954375 
    2590   0.92402812   -1315.0632   -10.851111    21852.108    3.1838997    27.957464 
    2600   0.91975057   -1315.0318   -19.195644    21857.946    3.1830493    27.959954 
    2610   0.91542865   -1315.0003   -23.791027    21861.302    3.1825607    27.961385 
    2620   0.91108576   -1314.9695   -23.763776    21861.585    3.1825195    27.961505 
    2630   0.90672189   -1314.9394   -19.125032    21858.801    3.1829248    27.960318 
    2640   0.90231801   -1314.9091    -10.76736    21853.554     3.183689    27.958081 
    2650   0.89784362   -1314.8779  -0.30207956    21846.928    3.1846547    27.955255 
    2660   0.89326589   -1314.8452    10.240039    21840.273     3.185625    27.952416 
    2670   0.88855878   -1314.8114    18.797621    21834.947     3.186402    27.950144 
    2680   0.88371021   -1314.7774    23.686512     21832.05    3.1868249    27.948908 
    2690   0.87872607   -1314.7439    23.942386    21832.206    3.1868022    27.948974 
    2700   0.87363016   -1314.7109    19.520215    21835.444    3.1863296    27.950356 
    2710   0.86846046   -1314.6779    11.302533    21841.193    3.1854909    27.952809 
    2720    0.8632624   -1314.6439    0.9146341    21848.394     3.184441     27.95588 
    2730   0.85808085   -1314.6086   -9.6082697    21855.707    3.1833754    27.958999 
    2740   0.85295253   -1314.5724   -18.225474    21861.775    3.1824918    27.961587 
    2750   0.84790027   -1314.5363   -23.282316    21865.486    3.1819517    27.963168 
    2760   0.84293037   -1314.5009   -23.816941    21866.187    3.1818497    27.963467 
    2770   0.83803352   -1314.4664   -19.733652    21863.813    3.1821952    27.962455 
    2780   0.83318888   -1314.4322   -11.818831    21858.895    3.1829111    27.960358 
    2790   0.82837083   -1314.3974   -1.5976222    21852.461    3.1838483    27.957615 
    2800   0.82355675   -1314.3614    8.9485913    21845.832    3.1848144    27.954788 
    2810   0.81873457   -1314.3245    17.760067    21840.367    3.1856114    27.952456 
    2820   0.81390846   -1314.2876    23.104483    21837.198    3.1860737    27.951104 
    2830   0.80910145   -1314.2514    23.928055    21837.008    3.1861013    27.951023 
    2840   0.80435468   -1314.2162    20.073018    21839.901    3.1856793    27.952258 
    2850   0.79972325   -1314.1813    12.309406    21845.377    3.1848807    27.954594 
    2860   0.79526976    -1314.146    2.1735188    21852.435     3.183852    27.957604 
    2870   0.79105693   -1314.1099   -8.3474833    21859.768    3.1827841     27.96073 
    2880   0.78714067   -1314.0732   -17.211827    21866.016    3.1818745    27.963395 
    2890   0.78356507   -1314.0368   -22.716441    21870.037    3.1812896    27.965108 
    2900   0.78036489   -1313.9771   -23.665717    21871.121    3.1811319     27.96557 
    2910     0.777554   -1313.9434   -20.180737    21869.144    3.1814194    27.964728 
    2920   0.77514757    -1313.886   -12.640427    21864.568    3.1820853    27.962777 
    2930   0.77314219   -1313.8533   -2.7925928    21858.366    3.1829882    27.960133 
    2940   0.77152659     -1313.82    7.6035939    21851.815    3.1839425    27.957339 
    2950   0.77031086   -1313.8111     16.37311    21846.251    3.1847532    27.954966 
    2960   0.76952055   -1313.7781    22.088895    21842.809    3.1852551    27.953498 
    2970   0.76919139   -1313.7463    23.476524    21842.218    3.1853413    27.953246 
    2980   0.76938888   -1313.6917    20.404293    21844.661     3.184985    27.954288 
    2990   0.77014695   -1313.6628    13.198115    21849.732     3.184246    27.956451 
    3000   0.77155937   -1313.5851    3.7298532    21856.505    3.1832592    27.959339 
    3010   0.77367905   -1313.5565   -6.7270597    21863.745     3.182205    27.962426 
    3020   0.77651692    -1313.528   -15.849423     21870.11    3.1812789     27.96514 
    3030   0.78010825   -1313.5003   -21.882422    21874.421    3.1806519    27.966977 
    3040    0.7844731   -1313.4742   -23.676493      21875.9    3.1804369    27.967607 
    3050   0.78961552   -1313.4503   -20.896039    21874.318    3.1806669    27.966933 
    3060     0.795525   -1313.4279    -14.07849    21870.039    3.1812892    27.965109 
    3070   0.80217962   -1313.4063   -4.5361133     21863.95    3.1821753    27.962514 
    3080   0.80955048   -1313.3847    5.8857488    21857.286    3.1831455    27.959672 
    3090   0.81760654   -1313.3633    15.157551    21851.393    3.1840039    27.957159 
    3100   0.82631906   -1313.3427    21.461502    21847.464    3.1845765    27.955484 
    3110   0.83566483   -1313.3236    23.556797    21846.308    3.1847451     27.95499 
    3120   0.84562766   -1313.3065      21.0342    21848.189    3.1844708    27.955793 
    3130   0.85619779    -1313.291    14.400108     21852.78    3.1838018    27.957751 
    3140   0.86738626   -1313.2517    5.1075732    21859.232    3.1828621    27.960502 
    3150   0.87916729    -1313.237   -5.3064381    21866.337    3.1818279    27.963531 
    3160   0.89152849   -1313.2225   -14.664743    21872.749    3.1808951    27.966264 
    3170   0.90444831   -1313.2089   -21.165185     21877.26    3.1802392    27.968187 
    3180    0.9178906   -1313.1971   -23.567938     21879.03    3.1799819    27.968941 
    3190   0.93183412   -1313.1629   -21.283666    21877.761    3.1801665      27.9684 
    3200   0.94618282   -1313.1306   -14.896491    21873.745    3.1807502    27.966689 
    3210   0.96086599   -1313.1484   -5.9230229    21867.804    3.1816143    27.964157 
    3220   0.97575229   -1313.1419    4.3425523    21861.111    3.1825885    27.961303 
    3230   0.99071909   -1313.1357    13.752797     21854.99    3.1834799    27.958693 
    3240    1.0056456   -1313.1303    20.464266    21850.654    3.1841116    27.956844 
    3250    1.0204166    -1313.102    23.307061    21848.963     3.184358    27.956123 
    3260    1.0349546   -1313.0758    21.579863    21850.275    3.1841669    27.956682 
    3270    1.0491088   -1313.0761    15.476479    21854.364     3.183571    27.958426 
    3280     1.062742   -1313.0775    6.3539682    21860.445    3.1826854    27.961019 
    3290    1.0757353   -1313.0794   -3.9947546     21867.34     3.181682    27.963959 
    3300    1.0879611   -1313.0817   -13.555609    21873.711    3.1807552    27.966674 
    3310    1.0992843   -1313.0608   -20.338642    21878.325    3.1800844    27.968641 
    3320    1.1095393   -1313.0665   -23.345168    21880.302     3.179797    27.969483 
    3330    1.1185461   -1313.0748   -21.863458     21879.26    3.1799486    27.969039 
    3340    1.1261294   -1313.0857   -16.185691    21875.395    3.1805104    27.967392 
    3350     1.132049   -1313.0984    -7.403283    21869.446    3.1813755    27.964857 
    3360     1.136164   -1313.1611    2.4919444    21862.549    3.1823792    27.961916 
    3370    1.1383739   -1313.1756    12.164635    21855.993    3.1833338    27.959121 
    3380    1.1386465   -1313.1914    19.430593    21851.018    3.1840585    27.956999 
    3390    1.1371155   -1313.2092    22.861787    21848.557    3.1844172     27.95595 
    3400    1.1340652   -1313.2297    21.785487    21849.047    3.1843458    27.956159 
    3410    1.1299101   -1313.2526    16.422797    21852.344    3.1838653    27.957565 
    3420     1.125147   -1313.2528    7.9894148    21857.758    3.1830767    27.959874 
    3430    1.1202718   -1313.2785    -2.146227    21864.193    3.1821399    27.962617 
    3440    1.1157209    -1313.305   -11.857542    21870.343    3.1812451    27.965239 
    3450     1.111841   -1313.3329   -19.266481    21874.954    3.1805745    27.967204 
    3460    1.1088737   -1313.3874   -23.104251     21877.07    3.1802669    27.968106 
    3470    1.1069809   -1313.4201   -22.350459    21876.204    3.1803927    27.967737 
    3480    1.1061613   -1313.4799   -17.439185    21872.449    3.1809388    27.966136 
    3490    1.1063793   -1313.5413    -9.160004    21866.442    3.1818125    27.963576 
    3500    1.1075254   -1313.6279    0.7346323    21859.265    3.1828573    27.960516 
    3510    1.1094833   -1313.6903    10.620147    21852.201    3.1838862    27.957504 
    3520    1.1120214   -1313.7286     18.57275    21846.521     3.184714    27.955081 
    3530    1.1149464   -1313.7924    22.730626    21843.245    3.1851917    27.953684 
    3540    1.1180998   -1313.8332    22.570046     21842.91    3.1852405    27.953541 
    3550    1.1212731   -1313.8752    17.991861    21845.484    3.1848652    27.954639 
    3560    1.1243189   -1313.9177    9.9113133    21850.373    3.1841525    27.956724 
    3570     1.127132   -1313.9842  -0.22266588    21856.533    3.1832551    27.959351 
    3580    1.1296364   -1314.0251   -10.130677    21862.661    3.1823628    27.961964 
    3590    1.1317478   -1314.0653    -18.03631    21867.474    3.1816624    27.964016 
    3600    1.1334157   -1314.1054   -22.420633    21869.952    3.1813019    27.965072 
    3610    1.1345935    -1314.146   -22.448354    21869.532     3.181363    27.964893 
    3620    1.1352312   -1314.1868    -18.11843    21866.215    3.1818456    27.963479 
    3630      1.13527   -1314.2271   -10.263021    21860.566    3.1826678    27.961071 
    3640    1.1346434   -1314.2659  -0.39520002    21853.606    3.1836814    27.958103 
    3650    1.1332818   -1314.3026    9.5727376    21846.611    3.1847009     27.95512 
    3660    1.1311215   -1314.3373    17.695503    21840.864    3.1855388    27.952668 
    3670    1.1281147   -1314.3708    22.378966    21837.408     3.186043    27.951194 
    3680    1.1242396   -1314.4036    22.703305     21836.84    3.1861258    27.950952 
    3690    1.1195065   -1314.4357    18.612324    21839.197     3.185782    27.951957 
    3700    1.1139601   -1314.4664    10.923852    21843.948     3.185089    27.953984 
    3710    1.1076758   -1314.4949    1.1589044    21850.101    3.1841921    27.956608 
    3720    1.1007521    -1314.521   -8.7691752    21856.396    3.1832751    27.959293 
    3730    1.0932992   -1314.5449   -16.934658    21861.551    3.1825244    27.961491 
    3740    1.0854283   -1314.5675   -21.769308    21864.515    3.1820931    27.962754 
    3750    1.0772409   -1314.5895    -22.35392    21864.664    3.1820713    27.962818 
    3760    1.0688232   -1314.6111   -18.584582     21861.93    3.1824693    27.961652 
    3770    1.0602433   -1314.6317   -11.190008    21856.804    3.1832156    27.959467 
    3780    1.0515546   -1314.6505   -1.5979002    21850.247    3.1841709    27.956671 
    3790    1.0428008   -1314.6671    8.3305017    21843.499    3.1851545    27.953793 
    3800    1.0340248   -1314.6819    16.655859    21837.839      3.18598    27.951378 
    3810    1.0252765   -1314.6955     21.74242    21834.336    3.1864912    27.949883 
    3820    1.0166197   -1314.7087    22.588597    21833.639     3.186593    27.949586 
    3830    1.0081354   -1314.7218    19.032727     21835.85    3.1862702    27.950529 
    3840   0.99992117   -1314.7343     11.78535    21840.509    3.1855906    27.952517 
    3850   0.99208754   -1314.7456     2.280368     21846.68    3.1846908    27.955149 
    3860   0.98475062   -1314.7554   -7.6188552    21853.136      3.18375    27.957903 
    3870   0.97802386   -1314.7639   -15.990934      21858.6    3.1829541    27.960233 
    3880    0.9720098   -1314.7722   -21.227102    21861.994      3.18246     27.96168 
    3890   0.96679335   -1314.7808    -22.33152    21862.643    3.1823654    27.961957 
    3900   0.96243762   -1314.7903      -19.102    21860.411    3.1826904    27.961005 
    3910   0.95898267      -1314.8   -12.165026     21855.72    3.1833735    27.959005 
    3920   0.95644716   -1314.8092   -2.8605857    21849.471    3.1842839     27.95634 
    3930   0.95483223   -1314.8176    7.0066159    21842.869    3.1852465    27.953524 
    3940   0.95412685   -1314.8252    15.510763    21837.183    3.1860757    27.951098 
    3950   0.95431324   -1314.8327    20.982595    21833.508    3.1866121     27.94953 
    3960   0.95537148   -1314.8409    22.345628     21832.54    3.1867534    27.949117 
    3970   0.95728217     -1314.85    19.336793     21834.45    3.1864746    27.949932 
    3980   0.96002647   -1314.8596    12.559684    21838.846    3.1858332    27.951807 
    3990   0.96358352   -1314.8689    3.3577414    21844.852    3.1849572     27.95437 
    4000   0.96792544   -1314.8776   -6.4618401    21851.283    3.1840199    27.957112 
    4010   0.97301077   -1314.8857   -14.989631    21856.871    3.1832059    27.959495 
    4020   0.97877755    -1314.894   -20.583842    21860.516    3.1826751     27.96105 
    4030   0.98513732   -1314.9032   -22.178077      21861.5    3.1825318    27.961469 
    4040   0.99197136   -1314.9136   -19.475574    21859.622    3.1828053    27.960668 
    4050   0.99912996   -1314.9247   -13.001355    21855.237    3.1834439    27.958799 
    4060    1.0064356   -1314.9356   -4.0054164    21849.185    3.1843256    27.956218 
    4070    1.0136898   -1314.9459    5.7690688    21842.633    3.1852809    27.953423 
    4080    1.0206831   -1314.9554      14.4167    21836.839     3.186126    27.950951 
    4090    1.0272073   -1314.9647    20.242204    21832.914    3.1866988    27.949276 
    4100    1.0330678   -1314.9744    22.100768    21831.602    3.1868902    27.948717 
    4110    1.0380954   -1314.9848    19.632146    21833.138    3.1866661    27.949372 
    4120    1.0421548   -1314.9955    13.334001    21837.197    3.1860737    27.951104 
    4130    1.0451504   -1315.0057     4.457004    21842.967    3.1852322    27.953565 
    4140    1.0470268   -1315.0149   -5.2527707    21849.302    3.1843087    27.956267 
    4150    1.0477675   -1315.0231   -13.904266    21854.949    3.1834858    27.958676 
    4160    1.0473901    -1315.031    -19.82921    21858.795    3.1829257    27.960316 
    4170    1.0459403   -1315.0394   -21.896126    21860.076    3.1827392    27.960862 
    4180    1.0434864   -1315.0484     -19.7172    21858.531    3.1829641    27.960203 
    4190    1.0401134   -1315.0578   -13.717034    21854.447    3.1835589    27.958462 
    4200    1.0359193   -1315.0667   -5.0540056    21848.606      3.18441    27.955971 
    4210     1.031012   -1315.0747    4.5943367    21842.128    3.1853545    27.953208 
    4220    1.0255081   -1315.0815    13.348918    21836.258    3.1862108    27.950703 
    4230    1.0195318   -1315.0877    19.495118     21832.12    3.1868146    27.948938 
    4240    1.0132144   -1315.0941    21.825864      21830.5    3.1870511    27.948246 
    4250    1.0066928   -1315.1008    19.887907    21831.692    3.1868771    27.948755 
    4260    1.0001078   -1315.1077    14.074341    21835.442    3.1863299    27.950355 
    4270   0.99359947   -1315.1141    5.5413607    21840.996    3.1855196    27.952725 
    4280   0.98730223   -1315.1195   -4.0304168    21847.255     3.184607    27.955394 
    4290   0.98133871   -1315.1238   -12.774321    21852.984    3.1837721    27.957838 
    4300   0.97581376   -1315.1276   -19.002103    21857.056    3.1831789    27.959574 
    4310   0.97080965   -1315.1316   -21.523044     21858.67    3.1829438    27.960263 
    4320   0.96638339   -1315.1363   -19.862489    21857.506    3.1831134    27.959766 
    4330   0.96256658   -1315.1414   -14.346482    21853.785    3.1836554    27.958179 
    4340    0.9593682   -1315.1461   -6.0408844    21848.223    3.1844658    27.955808 
    4350   0.95677981   -1315.1498    3.4460655    21841.899    3.1853879     27.95311 
    4360   0.95478243   -1315.1523    12.267609    21836.034    3.1862435    27.950608 
    4370   0.95335403   -1315.1541    18.697033    21831.763    3.1868668    27.948785 
    4380   0.95247619   -1315.1558    21.472068    21829.908    3.1871376    27.947994 
    4390   0.95213873   -1315.1578    20.051765    21830.819    3.1870045    27.948383 
    4400   0.95234134   -1315.1599    14.726977    21834.309    3.1864951    27.949872 
    4410   0.95309175   -1315.1614    6.5582585    21839.688    3.1857103    27.952167 
    4420    0.9544007   -1315.1617    -2.843585    21845.902    3.1848042    27.954818 
    4430   0.95627463   -1315.1607   -11.642808    21851.739    3.1839535    27.957307 
    4440   0.95870739    -1315.159   -18.138542    21856.064    3.1833234    27.959151 
    4450    0.9616726   -1315.1572   -21.087611    21858.042    3.1830353    27.959995 
    4460   0.96511834   -1315.1558   -19.933547    21857.297    3.1831438    27.959677 
    4470   0.96896523   -1315.1546   -14.906273    21853.985    3.1836262    27.958265 
    4480   0.97310864   -1315.1528   -6.9785358    21848.761    3.1843875    27.956037 
    4490   0.97742505   -1315.1499    2.3143216    21842.652    3.1852781    27.953431 
    4500   0.98178153   -1315.1456    11.163867    21836.857    3.1861234    27.950959 
    4510   0.98604704   -1315.1404    17.838608    21832.515    3.1867571    27.949106 
    4520   0.99010343   -1315.1348     21.02819    21830.478    3.1870543    27.948237 
    4530   0.99385443   -1315.1293    20.109321    21831.152    3.1869559    27.948525 
    4540   0.99723094   -1315.1238    15.273025    21834.412    3.1864801    27.949916 
    4550     1.000192   -1315.1177    7.4832065    21839.632    3.1857186    27.952143 
    4560    1.0027218   -1315.1105   -1.7232069    21845.805    3.1848183    27.954776 
    4570    1.0048228   -1315.1021   -10.547492    21851.744    3.1839527    27.957309 
    4580    1.0065086   -1315.0928   -17.282918    21856.313    3.1832871    27.959258 
    4590    1.0077956   -1315.0836    -20.63991    21858.644    3.1829477    27.960252 
    4600    1.0086977   -1315.0748   -19.984454    21858.309    3.1829964    27.960109 
    4610    1.0092233   -1315.0665   -15.452117    21855.399    3.1834203    27.958868 
    4620    1.0093755   -1315.0581   -7.9215018    21850.505    3.1841333    27.956781 
    4630    1.0091554   -1315.0489      1.14864    21844.605    3.1849933    27.954264 
    4640    1.0085682   -1315.0387    9.9939382    21838.869    3.1858299    27.951817 
    4650    1.0076285   -1315.0279    16.884844    21834.435    3.1864768    27.949925 
    4660    1.0063662   -1315.0171    20.469268    21832.185    3.1868051    27.948965 
    4670     1.004829   -1315.0069    20.046167    21832.575    3.1867482    27.949132 
    4680    1.0030829   -1314.9972     15.70855    21835.544     3.186315    27.950398 
    4690    1.0012084   -1314.9875    8.3223403    21840.528    3.1855879    27.952525 
    4700   0.99929432   -1314.9772   -0.6535296    21846.574    3.1847063    27.955104 
    4710   0.99742989   -1314.9663    -9.463288    21852.523    3.1838392    27.957641 
    4720    0.9956962   -1314.9551   -16.400833    21857.241     3.183152    27.959653 
    4730   0.99415866   -1314.9442   -20.136033    21859.833    3.1827745    27.960759 
    4740   0.99286167   -1314.9342   -19.961564    21859.824    3.1827759    27.960755 
    4750   0.99182615   -1314.9251   -15.920631    21857.241     3.183152    27.959653 
    4760   0.99105022   -1314.9163   -8.7971602    21852.614    3.1838261     27.95768 
    4770   0.99051291   -1314.9072  0.029673566    21846.866    3.1846637    27.955229 
    4780   0.99017989   -1314.8974    8.8445639    21841.139    3.1854988    27.952785 
    4790   0.99001044   -1314.8871    15.926059    21836.566    3.1861658    27.950835 
    4800   0.98996419   -1314.8769    19.886443    21834.057     3.186532    27.949764 
    4810   0.99000647   -1314.8673      19.9517    21834.112    3.1865239    27.949788 
    4820   0.99011134   -1314.8583    16.119196    21836.735    3.1861411    27.950907 
    4830   0.99026185   -1314.8493    9.1563154    21841.427    3.1854567    27.952909 
    4840    0.9904475   -1314.8397   0.44068105    21847.288    3.1846021    27.955409 
    4850    0.9906598   -1314.8292   -8.3201945    21853.194    3.1837415    27.957927 
    4860   0.99088669   -1314.8181   -15.427009    21858.014    3.1830394    27.959983 
    4870   0.99110749    -1314.807   -19.514925    21860.835    3.1826287    27.961186 
    4880   0.99128926   -1314.7964   -19.807824    21861.132    3.1825854    27.961312 
    4890   0.99138565   -1314.7862   -16.259003    21858.875     3.182914     27.96035 
    4900   0.99133882   -1314.7759   -9.5576933    21854.529     3.183547    27.958497 
    4910   0.99108405   -1314.7648   -1.0009219    21848.964    3.1843579    27.956123 
    4920    0.9905566   -1314.7526    7.7498371    21843.287    3.1851855    27.953702 
    4930    0.9896996   -1314.7394     14.98741    21838.625    3.1858654    27.951713 
    4940   0.98847137   -1314.7256    19.294875    21835.906    3.1862622    27.950553 
    4950   0.98685086   -1314.7117    19.830544    21835.677    3.1862955    27.950455 
    4960   0.98484006   -1314.6978    16.499155    21838.001    3.1859564    27.951447 
    4970   0.98246268   -1314.6834    9.9696132    21842.444    3.1853084    27.953342 
    4980   0.97975937    -1314.668     1.535368     21848.16     3.184475    27.955781 
    4990    0.9767804   -1314.6512   -7.1494221    21854.062     3.183615    27.958298 
    5000   0.97357705   -1314.6332   -14.398465    21859.029    3.1828916    27.960416 
    5010   0.97019341   -1314.6146   -18.818314    21862.128    3.1824405    27.961737 
    5020   0.96666005    -1314.596   -19.568938    21862.792    3.1823438     27.96202 
    5030   0.96299061   -1314.5774   -16.516568    21860.931    3.1826146    27.961227 
    5040   0.95918188   -1314.5585   -10.256039    21856.947    3.1831948    27.959528 
    5050   0.95521716   -1314.5386   -1.9998775    21851.654    3.1839659    27.957271 
    5060   0.95107213   -1314.5173    6.6489855    21846.119    3.1847725     27.95491 
    5070   0.94672218   -1314.4948     14.00394    21841.459    3.1854521    27.952922 
    5080   0.94214934   -1314.4715    18.625517    21838.615    3.1858669    27.951709 
    5090   0.93734786    -1314.448        19.61    21838.177    3.1859308    27.951522 
    5100   0.93232691   -1314.4244    16.772867    21840.264    3.1856263    27.952412 
    5110   0.92711032   -1314.4005    10.684885    21844.506    3.1850078    27.954222 
    5120   0.92173339   -1314.3758     2.552612    21850.114    3.1841903    27.956614 
    5130   0.91623784   -1314.3498   -6.0282439    21856.037    3.1833273     27.95914 
    5140   0.91066597   -1314.3228   -13.390736    21861.169      3.18258    27.961328 
    5150   0.90505561   -1314.2955   -18.119076    21864.562    3.1820862    27.962775 
    5160    0.8994368   -1314.2683   -19.314357    21865.609    3.1819338    27.963221 
    5170   0.89383103   -1314.2416   -16.758684    21864.162    3.1821443    27.962604 
    5180   0.88825302    -1314.215   -10.952852    21860.559    3.1826689    27.961068 
    5190   0.88271473   -1314.1881   -3.0225605    21855.555    3.1833975    27.958934 
    5200    0.8772306   -1314.1603    5.4924487    21850.178    3.1841809    27.956641 
    5210   0.87182292   -1314.1319    12.932287    21845.527    3.1848589    27.954657 
    5220   0.86652699   -1314.0788    17.992776    21842.555    3.1852923     27.95339 
    5230   0.86140632   -1314.0507    19.394579      21841.9    3.1853878     27.95311 
    5240   0.85650413   -1314.0234    17.008447    21843.743    3.1851189    27.953897 
    5250   0.85189444   -1313.9965    11.315704    21847.773    3.1845315    27.955615 
    5260   0.84765796   -1313.9698    3.4451755     21853.25    3.1837334    27.957951 
    5270   0.84387634   -1313.9427   -5.0580607    21859.157     3.182873     27.96047 
    5280   0.84062655   -1313.9156   -12.541335    21864.397    3.1821102    27.962704 
    5290   0.83797649    -1313.889   -17.565056    21868.005    3.1815852    27.964242 
    5300   0.83598235   -1313.8635   -19.173771    21869.337    3.1813913     27.96481 
    5310   0.83468818   -1313.8395   -17.071156    21868.192    3.1815579    27.964322 
    5320   0.83414379   -1313.7921    -11.52386    21864.851    3.1820442    27.962898 
    5330   0.83441022   -1313.7456   -3.7629625    21860.038    3.1827447    27.960846 
    5340    0.8354593    -1313.724     4.560174    21854.756    3.1835139    27.958594 
    5350   0.83730693   -1313.7029    11.974715     21850.08    3.1841953    27.956599 
    5360   0.83999248   -1313.6582      17.1804    21846.962    3.1846496     27.95527 
    5370   0.84355711   -1313.6396    18.864639    21846.063    3.1847807    27.954886 
    5380   0.84801039   -1313.6228    16.849497    21847.596    3.1845573     27.95554 
    5390   0.85339092   -1313.6076    11.542843    21851.295    3.1840182    27.957118 
    5400   0.85975168    -1313.569    4.1424412    21856.475    3.1832635    27.959327 
    5410   0.86713594   -1313.5068   -3.9006357    21862.182    3.1824326     27.96176 
    5420    0.8755655   -1313.4701   -11.304706    21867.362    3.1816786    27.963968 
    5430   0.88501942   -1313.4593   -16.649535    21871.068    3.1811396    27.965548 
    5440   0.89550743   -1313.4259    -18.62933    21872.621    3.1809138     27.96621 
    5450   0.90699179   -1313.3948   -17.017352    21871.765    3.1810382    27.965845 
    5460   0.91944097   -1313.3903   -12.276614    21868.711    3.1814824    27.964543 
    5470   0.93274843   -1313.3629   -5.0395493    21864.088    3.1821551    27.962572 
    5480   0.94682573   -1313.4102    2.7056146    21858.822    3.1829218    27.960327 
    5490   0.96156907   -1313.4094    10.189515    21853.924    3.1836351    27.958239 
    5500   0.97684891   -1313.4345    15.501691    21850.357    3.1841549    27.956718 
    5510   0.99253614   -1313.4368    17.895869    21848.805     3.184381    27.956056 
    5520    1.0084812   -1313.4411    16.768923    21849.563    3.1842705    27.956379 
    5530     1.024527   -1313.4472    12.353779     21852.48    3.1838456    27.957623 
    5540     1.040505   -1313.4547    5.5289255    21856.979    3.1831901    27.959542 
    5550    1.0562316   -1313.4632   -2.3622691    21862.179     3.182433    27.961759 
    5560    1.0715031   -1313.4725    -9.781554     21867.06    3.1817227    27.963839 
    5570    1.0860893    -1313.483   -15.296835    21870.664    3.1811983    27.965376 
    5580    1.0997458   -1313.4705   -17.716737    21872.293    3.1809614     27.96607 
    5590    1.1121527   -1313.4846   -16.876892    21871.631    3.1810577    27.965788 
    5600    1.1229823   -1313.5005   -12.798415    21868.794    3.1814704    27.964578 
    5610    1.1318967   -1313.5176    -6.274696    21864.315    3.1821221    27.962669 
    5620    1.1385849   -1313.5355    1.4286135    21859.044    3.1828894    27.960422 
    5630    1.1428238    -1313.554     8.813716    21853.976    3.1836275    27.958261 
    5640    1.1445621   -1313.5978     14.28954    21850.062    3.1841979    27.956592 
    5650     1.144008   -1313.6183    17.079448    21848.008    3.1844971    27.955716 
    5660    1.1416047   -1313.6647    16.356042     21848.16    3.1844751     27.95578 
    5670    1.1380135    -1313.688    12.569824    21850.421    3.1841456    27.956745 
    5680    1.1339386   -1313.7123     6.331522    21854.294    3.1835812    27.958397 
    5690    1.1299921    -1313.737   -1.1268804    21858.972    3.1828999    27.960391 
    5700    1.1266185   -1313.7868    -8.488036    21863.484    3.1822431    27.962315 
    5710    1.1240074   -1313.8128   -14.035377    21866.888    3.1817477    27.963766 
    5720    1.1222173   -1313.8644   -17.004965     21868.47    3.1815176     27.96444 
    5730    1.1212059   -1313.8929   -16.540215    21867.856    3.1816069    27.964179 
    5740    1.1208749   -1313.9473   -13.036162     21865.11    3.1820064    27.963008 
    5750    1.1211692   -1314.0272    -7.161553    21860.683    3.1826507    27.961121 
    5760    1.1218866   -1314.0582   0.38290229    21855.351    3.1834273    27.958847 
    5770     1.122876   -1314.0892    7.8303672    21850.088     3.184194    27.956603 
    5780    1.1240281   -1314.1694    13.430103    21845.852    3.1848115    27.954796 
    5790    1.1252765   -1314.2009    16.674164    21843.371    3.1851731    27.953738 
    5800    1.1264349    -1314.233    16.650001    21843.047    3.1852205    27.953599 
    5810    1.1274125   -1314.2655    13.374955    21844.867    3.1849551    27.954376 
    5820    1.1281408   -1314.2979    7.5063006    21848.403    3.1844396    27.955884 
    5830    1.1285728   -1314.3298   0.20528197    21852.896    3.1837849      27.9578 
    5840    1.1286799   -1314.3609   -7.0977816    21857.402    3.1831286    27.959722 
    5850    1.1284457   -1314.3913   -12.985817    21860.979    3.1826078    27.961247 
    5860    1.1278597   -1314.4215   -16.327269    21862.871    3.1823323    27.962054 
    5870      1.12691   -1314.4515   -16.487837    21862.652    3.1823641     27.96196 
    5880    1.1255798   -1314.4815   -13.446157     21860.31    3.1827051    27.960962 
    5890    1.1238443    -1314.511   -7.7956474    21856.244    3.1832972    27.959228 
    5900    1.1216728   -1314.5394  -0.63269984     21851.19    3.1840335    27.957073 
    5910     1.119032   -1314.5665    6.6508351    21846.074    3.1847791    27.954891 
    5920    1.1158925   -1314.5923    12.635644    21841.834    3.1853973    27.953082 
    5930    1.1122349   -1314.6171    16.153773    21839.238    3.1857761    27.951974 
    5940    1.1080563   -1314.6413    16.521962    21838.729    3.1858502    27.951758 
    5950    1.1033736   -1314.6649    13.679001    21840.349     3.185614    27.952449 
    5960    1.0982241   -1314.6876    8.1961861    21843.724    3.1851218    27.953888 
    5970    1.0926629    -1314.709    1.1587962    21848.144    3.1844774    27.955774 
    5980    1.0867576   -1314.7289   -6.0539684    21852.699    3.1838136    27.957716 
    5990    1.0805805   -1314.7475   -12.042066     21856.46    3.1832658     27.95932 
    6000     1.074202   -1314.7652   -15.654595    21858.657    3.1829458    27.960257 
    6010    1.0676837   -1314.7824   -16.205972     21858.83    3.1829206    27.960331 
    6020     1.061074   -1314.7992   -13.601459    21856.915    3.1831995    27.959514 
    6030    1.0544078   -1314.8154   -8.3524729    21853.256    3.1837325    27.957954 
    6040    1.0477071   -1314.8305   -1.4798073    21848.536    3.1844203    27.955941 
    6050    1.0409862   -1314.8443    5.6796224    21843.645    3.1851333    27.953855 
    6060    1.0342566   -1314.8569     11.72981    21839.504    3.1857372    27.952088 
    6070    1.0275335   -1314.8686    15.489267    21836.889    3.1861186    27.950973 
    6080    1.0208407   -1314.8799    16.226504    21836.277    3.1862079    27.950711 
    6090    1.0142134   -1314.8907    13.806898    21837.755    3.1859923    27.951342 
    6100    1.0076991    -1314.901    8.7181011    21841.005    3.1855183    27.952728 
    6110    1.0013551   -1314.9104    1.9684836    21845.365    3.1848825    27.954588 
    6120   0.99524436   -1314.9186   -5.1178112    21849.965     3.184212     27.95655 
    6130    0.9894302   -1314.9259   -11.163819     21853.89      3.18364    27.958224 
    6140   0.98397051   -1314.9327   -15.006217    21856.365    3.1832796     27.95928 
    6150   0.97891334   -1314.9393   -15.914647    21856.897     3.183202    27.959507 
    6160   0.97429426   -1314.9459   -13.725973    21855.379    3.1834232    27.958859 
    6170   0.97013599   -1314.9522   -8.8722319    21852.098    3.1839011     27.95746 
    6180    0.9664504    -1314.958   -2.2984376     21847.69    3.1845436     27.95558 
    6190   0.96324237   -1314.9628    4.7163866    21843.003    3.1852268    27.953581 
    6200   0.96051484   -1314.9668    10.804756    21838.944    3.1858189    27.951849 
    6210   0.95827388   -1314.9703     14.77812     21836.29     3.186206    27.950717 
    6220   0.95653279   -1314.9736    15.863163    21835.549    3.1863142    27.950401 
    6230   0.95531439    -1314.977     13.85683     21836.85    3.1861243    27.950956 
    6240   0.95465077   -1314.9801     9.165633     21839.93     3.185675     27.95227 
    6250   0.95458057   -1314.9827    2.7205943    21844.179    3.1850554    27.954082 
    6260   0.95514391   -1314.9845   -4.2123887    21848.763    3.1843872    27.956038 
    6270    0.9563759   -1314.9857   -10.284597    21852.789    3.1838005    27.957755 
    6280   0.95829953   -1314.9867   -14.326338    21855.476    3.1834091    27.958901 
    6290   0.96091925   -1314.9877   -15.568249    21856.308    3.1832879    27.959255 
    6300   0.96421605    -1314.989   -13.783255    21855.132    3.1834591    27.958754 
    6310   0.96814495   -1314.9904   -9.3263945    21852.187    3.1838882    27.957498 
    6320   0.97263536   -1314.9916   -3.0667783    21848.053    3.1844906    27.955735 
    6330   0.97759436   -1314.9921    3.7771214    21843.543    3.1851482    27.953811 
    6340   0.98291244   -1314.9922     9.871108    21839.538    3.1857323    27.952102 
    6350   0.98847077   -1314.9919    14.025575    21836.819    3.1861289    27.950943 
    6360   0.99414901   -1314.9917    15.431444    21835.916    3.1862606    27.950557 
    6370   0.99983206   -1314.9918    13.822095    21837.002    3.1861023     27.95102 
    6380    1.0054149   -1314.9919    9.5255679    21839.861    3.1856851     27.95224 
    6390    1.0108047   -1314.9917     3.395515    21843.936    3.1850909    27.953979 
    6400    1.0159201   -1314.9911    -3.363001    21848.433    3.1844353    27.955897 
    6410    1.0206887   -1314.9901   -9.4339973    21852.481    3.1838453    27.957623 
    6420    1.0250427   -1314.9889   -13.646813      21855.3    3.1834348    27.958825 
    6430     1.028915    -1314.988   -15.198324     21856.35    3.1832818    27.959273 
    6440    1.0322367   -1314.9876   -13.801658    21855.439    3.1834144    27.958885 
    6450    1.0349358   -1314.9874   -9.7371966    21852.755    3.1838054     27.95774 
    6460    1.0369394   -1314.9871   -3.7982933    21848.829    3.1843775    27.956066 
    6470    1.0381777   -1314.9865    2.8592069    21844.432    3.1850185     27.95419 
    6480    1.0385898   -1314.9854     8.938342    21840.422    3.1856033     27.95248 
    6490    1.0381313   -1314.9841     13.25353     21837.58    3.1860179    27.951267 
    6500      1.03678   -1314.9828     14.96513    21836.454    3.1861822    27.950787 
    6510    1.0345419   -1314.9818    13.747183    21837.258    3.1860649     27.95113 
    6520    1.0314538   -1314.9809    9.8516205    21839.827    3.1856901    27.952226 
    6530    1.0275824   -1314.9798    4.0547295    21843.654     3.185132    27.953858 
    6540     1.023021   -1314.9783   -2.5015561    21847.989       3.1845    27.955707 
    6550    1.0178835   -1314.9762   -8.5380715    21851.985    3.1839176    27.957412 
    6560    1.0122957   -1314.9739   -12.888241    21854.867    3.1834977    27.958641 
    6570    1.0063874   -1314.9717   -14.720293    21856.078    3.1833213    27.959157 
    6580    1.0002844   -1314.9699   -13.691893     21855.39    3.1834217    27.958864 
    6590   0.99410288   -1314.9682   -10.011632    21852.941    3.1837784     27.95782 
    6600   0.98794682   -1314.9663   -4.3980477    21849.214    3.1843214     27.95623 
    6610   0.98190766   -1314.9639    2.0568362    21844.939    3.1849446    27.954407 
    6620   0.97606697   -1314.9609    8.0964809    21840.948    3.1855266    27.952704 
    6630   0.97050047   -1314.9575    12.543996    21838.016    3.1859543    27.951453 
    6640   0.96528249   -1314.9539    14.534463    21836.711    3.1861447    27.950896 
    6650   0.96048964   -1314.9504    13.687425     21837.28    3.1860616    27.951139 
    6660   0.95620289   -1314.9468    10.182092    21839.608     3.185722    27.952133 
    6670   0.95250719   -1314.9428    4.7186319    21843.237    3.1851927    27.953681 
    6680   0.94948877   -1314.9383   -1.6252634     21847.46    3.1845771    27.955482 
    6690   0.94722998    -1314.933   -7.6104196    21851.457    3.1839946    27.957187 
    6700    0.9458021   -1314.9273   -12.078877    21854.458    3.1835573    27.958467 
    6710   0.94525671   -1314.9214   -14.175197    21855.893    3.1833483    27.959078 
    6720   0.94561595   -1314.9156    -13.50607    21855.497    3.1834061    27.958909 
    6730   0.94686283   -1314.9098   -10.211473    21853.363    3.1837168       27.958 
    6740   0.94893297   -1314.9036   -4.9363863    21849.926    3.1842177    27.956534 
    6750   0.95171005   -1314.8967    1.2919382    21845.869    3.1848091    27.954803 
    6760   0.95502779   -1314.8891    7.2604495    21841.997    3.1853736    27.953152 
    6770   0.95868057   -1314.8807    11.805616    21839.077    3.1857994    27.951906 
    6780   0.96244267    -1314.872    14.042619     21837.69    3.1860019    27.951314 
    6790   0.96609296    -1314.863    13.541514    21838.114    3.1859399    27.951495 
    6800   0.96943914   -1314.8537    10.412379    21840.279    3.1856241    27.952419 
    6810   0.97233529    -1314.844    5.2807107    21843.775    3.1851143     27.95391 
    6820   0.97468925   -1314.8334  -0.84098185    21847.937    3.1845076    27.955685 
    6830   0.97645969    -1314.822   -6.7565544    21851.974    3.1839193    27.957407 
    6840   0.97764625   -1314.8099   -11.321113    21855.125    3.1834602    27.958751 
    6850   0.97827658   -1314.7976   -13.660497    21856.805    3.1832155    27.959467 
    6860   0.97839431   -1314.7852   -13.334921     21856.72    3.1832279    27.959431 
    6870   0.97804986   -1314.7728   -10.418987    21854.918    3.1834903    27.958663 
    6880   0.97729513   -1314.7601   -5.4854978    21851.784    3.1839469    27.957326 
    6890   0.97618166   -1314.7468   0.50381182    21847.959    3.1845044    27.955695 
    6900   0.97476137   -1314.7328    6.3821613    21844.217    3.1850499    27.954099 
    6910    0.9730885   -1314.7184     11.00367    21841.314    3.1854732     27.95286 
    6920   0.97122151   -1314.7038    13.468538     21839.84    3.1856882    27.952231 
    6930    0.9692239   -1314.6892    13.301782    21840.105    3.1856495    27.952345 
    6940   0.96716331   -1314.6747    10.547318    21842.081    3.1853614    27.953187 
    6950   0.96510879   -1314.6601     5.756786    21845.405    3.1848766    27.954606 
    6960   0.96312669   -1314.6452  -0.12396671    21849.457     3.184286    27.956334 
    6970     0.961276     -1314.63   -5.9452218    21853.477    3.1837003    27.958048 
    6980   0.95960399   -1314.6146    -10.57969    21856.715    3.1832287    27.959429 
    6990   0.95814318   -1314.5994   -13.139242    21858.576    3.1829576    27.960223 
    7000   0.95691033   -1314.5848   -13.141693    21858.738     3.182934    27.960291 
    7010   0.95590771   -1314.5706   -10.598958    21857.207     3.183157    27.959639 
    7020   0.95512652   -1314.5568   -6.0125309    21854.318    3.1835777    27.958407 
    7030   0.95455189    -1314.543  -0.27750066     21850.67    3.1841093    27.956851 
    7040   0.95416857   -1314.5292    5.4885664    21847.003    3.1846436    27.955287 
    7050   0.95396636   -1314.5155    10.161717    21844.061    3.1850726    27.954032 
    7060   0.95394424   -1314.5022    12.832003     21842.44    3.1853089    27.953341 
    7070   0.95411269   -1314.4895    12.983871    21842.478    3.1853034    27.953357 
    7080   0.95449366   -1314.4775     10.59829    21844.186    3.1850544    27.954086 
    7090   0.95511847    -1314.466    6.1543819    21847.251    3.1846075    27.955393 
    7100   0.95602396   -1314.4549   0.53056558    21851.095    3.1840473    27.957032 
    7110   0.95724764   -1314.4439   -5.1725095    21854.991    3.1834797    27.958694 
    7120   0.95882263   -1314.4334    -9.849101    21858.205    3.1830116    27.960064 
    7130    0.9607732   -1314.4236   -12.601577    21860.136    3.1827304    27.960888 
    7140   0.96311156   -1314.4147    -12.90955    21860.436    3.1826867    27.961016 
    7150   0.96583617   -1314.4068   -10.725482    21859.072    3.1828853    27.960434 
    7160   0.96893193   -1314.3997   -6.4812998    21856.334    3.1832841    27.959266 
    7170   0.97237186   -1314.3933   -1.0054229    21852.775    3.1838026    27.957749 
    7180    0.9761201   -1314.3872    4.6356183    21849.104    3.1843375    27.956183 
    7190   0.98013545   -1314.3815    9.3431153    21846.047     3.184783    27.954879 
    7200     0.984375   -1314.3766    12.201186    21844.208    3.1850512    27.954095 
    7210   0.98879701   -1314.3725    12.657985    21843.947    3.1850892    27.953984 
    7220   0.99336274   -1314.3693     10.63501    21845.316    3.1848896    27.954568 
    7230   0.99803669   -1314.3668    6.5408081    21848.049    3.1844913    27.955733 
    7240    1.0027853   -1314.3649    1.1864169    21851.611    3.1839721    27.957252 
    7250    1.0075747   -1314.3632   -4.3783943    21855.311    3.1834331     27.95883 
    7260    1.0123667    -1314.362   -9.0726894    21858.431    3.1829787    27.960161 
    7270     1.017116   -1314.3614    -11.99339    21860.369    3.1826965    27.960987 
    7280    1.0217665   -1314.3617   -12.586016    21860.754    3.1826405    27.961151 
    7290    1.0262494   -1314.3628   -10.747044    21859.516    3.1828207    27.960623 
    7300     1.030483   -1314.3645   -6.8410712    21856.901    3.1832015    27.959508 
    7310    1.0343738   -1314.3666    -1.630449    21853.418    3.1837089    27.958023 
    7320    1.0378195   -1314.3688     3.870505    21849.743    3.1842444    27.956456 
    7330     1.040713   -1314.3712    8.5911301    21846.584    3.1847048    27.955108 
    7340    1.0429479   -1314.3738    11.613547    21844.547    3.1850018    27.954239 
    7350    1.0444226   -1314.3767    12.353928    21844.014    3.1850795    27.954012 
    7360    1.0450465   -1314.3802    10.678098    21845.073    3.1849251    27.954464 
    7370    1.0447436   -1314.3839    6.9265411    21847.502     3.184571      27.9555 
    7380    1.0434585   -1314.3876    1.8436446    21850.812    3.1840886    27.956911 
    7390    1.0411625   -1314.3912   -3.5728296    21854.344    3.1835739    27.958418 
    7400    1.0378623   -1314.3946   -8.2694195    21857.402    3.1831285    27.959722 
    7410    1.0336109   -1314.3982   -11.341205    21859.381    3.1828403    27.960566 
    7420    1.0285185    -1314.402   -12.203419    21859.891    3.1827661    27.960783 
    7430    1.0227595   -1314.4063   -10.699831    21858.828     3.182921     27.96033 
    7440    1.0165697   -1314.4107   -7.1298704    21856.392    3.1832757    27.959291 
    7450    1.0102282   -1314.4151   -2.1904885    21853.051    3.1837624    27.957866 
    7460    1.0040268   -1314.4193    3.1571584    21849.445    3.1842878    27.956328 
    7470    0.9982322   -1314.4232    7.8728379    21846.264    3.1847515    27.954972 
    7480   0.99305435   -1314.4269    11.040034    21844.112    3.1850652    27.954054 
    7490   0.98862897   -1314.4308    12.046623    21843.391    3.1851703    27.953746 
    7500   0.98501682   -1314.4347     10.70604    21844.224    3.1850489    27.954102 
    7510   0.98221545   -1314.4386    7.2929366    21846.431    3.1847271    27.955043 
    7520   0.98017652   -1314.4422     2.485798    21849.566    3.1842701     27.95638 
    7530   0.97882248   -1314.4453    -2.770483    21853.009    3.1837685    27.957848 
    7540   0.97805934   -1314.4479   -7.4522237    21856.079    3.1833212    27.959158 
    7550    0.9777847   -1314.4502   -10.656011    21858.177    3.1830157    27.960052 
    7560   0.97789216   -1314.4523   -11.770645    21858.893    3.1829115    27.960357 
    7570   0.97827354   -1314.4543   -10.590919     21858.09    3.1830284    27.960015 
    7580   0.97882057   -1314.4559   -7.3540605    21855.928    3.1833432    27.959093 
    7590   0.97942718    -1314.457   -2.6931896    21852.831    3.1837944    27.957773 
    7600   0.97999268   -1314.4572    2.4839974    21849.404    3.1842938    27.956311 
    7610   0.98042605   -1314.4564    7.1700396    21846.314    3.1847442    27.954993 
    7620   0.98065055   -1314.4548    10.453886    21844.162    3.1850579    27.954075 
    7630     0.980608   -1314.4525    11.700211    21843.367    3.1851738    27.953736 
    7640   0.98026179   -1314.4495    10.675031    21844.081    3.1850697    27.954041 
    7650   0.97959817   -1314.4457    7.5908619    21846.165    3.1847658     27.95493 
    7660   0.97862526    -1314.441    3.0618354    21849.218    3.1843209    27.956232 
    7670   0.97737014   -1314.4351   -2.0209835    21852.651    3.1838206    27.957696 
    7680   0.97587435   -1314.4282   -6.6669302    21855.809    3.1833606    27.959043 
    7690   0.97418858   -1314.4202   -9.9789071    21858.095    3.1830277    27.960017 
    7700   0.97236725   -1314.4116   -11.324659    21859.085    3.1828834     27.96044 
    7710   0.97046343   -1314.4023    -10.45491    21858.614    3.1829521    27.960238 
    7720   0.96852433   -1314.3925   -7.5482058    21856.798    3.1832164    27.959464 
    7730     0.966587   -1314.3819   -3.1753544    21854.021     3.183621     27.95828 
    7740   0.96467386   -1314.3704     1.810122     21850.85     3.184083    27.956928 
    7750   0.96278755   -1314.3579    6.4362962    21847.929    3.1845087    27.955682 
    7760   0.96090541   -1314.3448    9.8018193    21845.851    3.1848117    27.954796 
    7770   0.95897502   -1314.3313    11.253017    21845.045    3.1849292    27.954452 
    7780   0.95691407   -1314.3175    10.512998    21845.691     3.184835    27.954727 
    7790   0.95461857   -1314.3035    7.7354673    21847.687     3.184544    27.955579 
    7800    0.9519834   -1314.2893    3.4718204     21850.67    3.1841092    27.956851 
    7810   0.94893457   -1314.2748   -1.4408844    21854.087    3.1836114    27.958308 
    7820   0.94546602   -1314.2602    -6.046656    21857.303     3.183143    27.959679 
    7830   0.94166576   -1314.2457   -9.4572708    21859.725    3.1827902    27.960712 
    7840   0.93771647   -1314.2316   -11.022258    21860.919    3.1826164    27.961221 
    7850   0.93386817   -1314.2183   -10.450869    21860.688    3.1826501    27.961123 
    7860   0.93039756   -1314.2059   -7.8649282    21859.112    3.1828795    27.960451 
    7870   0.92757263   -1314.1941   -3.7740075    21856.532    3.1832552    27.959351 
    7880   0.92563124   -1314.1831    1.0225216    21853.479    3.1836999    27.958049 
    7890   0.92477091   -1314.1728    5.5893066    21850.574    3.1841232     27.95681 
    7900   0.92514397   -1314.1635    9.0366485    21848.404    3.1844395    27.955884 
    7910   0.92685405   -1314.1554    10.695029    21847.407    3.1845848    27.955459 
    7920   0.92995303   -1314.1487    10.247212    21847.791    3.1845288    27.955623 
    7930   0.93443949   -1314.1433    7.7901359    21849.493    3.1842807    27.956349 
    7940   0.94026075   -1314.1393    3.8134712     21852.19    3.1838878    27.957499 
    7950   0.94731979   -1314.1365  -0.90012373    21855.366    3.1834251    27.958853 
    7960   0.95548677   -1314.1349   -5.4312388    21858.411    3.1829816    27.960152 
    7970   0.96461266   -1314.1347   -8.9037417    21860.743    3.1826421    27.961146 
    7980    0.9745414   -1314.1359   -10.652938    21861.917    3.1824711    27.961647 
    7990   0.98511772   -1314.1388   -10.350594    21861.714    3.1825007     27.96156 
    8000   0.99618946   -1314.1433   -8.0649942    21860.179    3.1827242    27.960906 
    8010    1.0076056   -1314.1492   -4.2461913    21857.613    3.1830978    27.959812 
    8020    1.0192119   -1314.1562   0.36065979    21854.514    3.1835492     27.95849 
    8030    1.0308465   -1314.1643    4.8586109    21851.477    3.1839916    27.957195 
    8040    1.0423365   -1314.1735    8.3728347    21849.082    3.1843407    27.956174 
    8050    1.0534961   -1314.1838    10.221928    21847.776     3.184531    27.955617 
    8060    1.0641253   -1314.1954    10.052188    21847.793    3.1845286    27.955624 
    8070    1.0740107   -1314.2081    7.9067971    21849.103    3.1843376    27.956183 
    8080     1.082926   -1314.2218    4.2152613    21851.425    3.1839992    27.957173 
    8090    1.0906375   -1314.2362  -0.29426597     21854.28    3.1835833     27.95839 
    8100    1.0969163   -1314.2513   -4.7405646    21857.083    3.1831749    27.959586 
    8110    1.1015649   -1314.2671   -8.2622307    21859.264    3.1828574    27.960516 
    8120    1.1044661   -1314.2839   -10.183359    21860.371    3.1826962    27.960988 
    8130    1.1056541   -1314.3016   -10.140926    21860.162    3.1827267    27.960898 
    8140    1.1053877   -1314.3203    -8.151436    21858.648    3.1829472    27.960253 
    8150    1.1041801   -1314.3397   -4.6059017    21856.092    3.1833194    27.959163 
    8160    1.1027256   -1314.3598  -0.19453972    21852.957    3.1837761    27.957826 
    8170    1.1017214   -1314.3804    4.2254916    21849.813    3.1842342    27.956485 
    8180    1.1016647   -1314.4015    7.7956171    21847.229    3.1846108    27.955383 
    8190    1.1027437   -1314.4233    9.8235396    21845.662    3.1848392    27.954715 
    8200    1.1048635   -1314.4458     9.919744    21845.366    3.1848823    27.954589 
    8210    1.1077535    -1314.469    8.0742783    21846.349     3.184739    27.955008 
    8220    1.1110809   -1314.4928    4.6573313    21848.367    3.1844448    27.955869 
    8230    1.1145288    -1314.517   0.34369316    21850.976    3.1840647    27.956981 
    8240    1.1178382   -1314.5414   -4.0223245    21853.617    3.1836799    27.958108 
    8250    1.1208246    -1314.566   -7.5929751    21855.729    3.1833722    27.959008 
    8260     1.123379    -1314.591   -9.6807875    21856.854    3.1832084    27.959488 
    8270    1.1254585   -1314.6163   -9.8888644    21856.727    3.1832268    27.959434 
    8280    1.1270671   -1314.6419   -8.1845017    21855.329    3.1834304    27.958838 
    8290    1.1282332   -1314.6677   -4.9036932    21852.885    3.1837865    27.957796 
    8300    1.1289855   -1314.6932  -0.68610269    21849.822    3.1842327     27.95649 
    8310    1.1293371   -1314.7183    3.6479676    21846.688    3.1846896    27.955153 
    8320    1.1292779    -1314.743    7.2563724    21844.039    3.1850758    27.954023 
    8330    1.1287779   -1314.7673    9.4396755    21842.337     3.185324    27.953297 
    8340     1.127796   -1314.7912    9.7788162    21841.858    3.1853938    27.953093 
    8350    1.1262915   -1314.8146    8.2174448     21842.64    3.1852797    27.953426 
    8360     1.124234   -1314.8373    5.0715457    21844.477     3.185012    27.954209 
    8370    1.1216081   -1314.8592   0.96455847    21846.958    3.1846503    27.955268 
    8380    1.1184149   -1314.8801   -3.2977477    21849.552    3.1842721    27.956374 
    8390    1.1146688   -1314.9001   -6.8861724    21851.711    3.1839575    27.957295 
    8400    1.1103936   -1314.9191   -9.1086601    21852.975    3.1837734    27.957834 
    8410    1.1056171   -1314.9374   -9.5418696    21853.061    3.1837608    27.957871 
    8420    1.1003669   -1314.9549    -8.110009     21851.92    3.1839272    27.957384 
    8430    1.0946696   -1314.9714   -5.0974748    21849.741    3.1842447    27.956455 
    8440    1.0885496   -1314.9869   -1.0934796    21846.917    3.1846562    27.955251 
    8450    1.0820323   -1315.0012    3.1214327    21843.968    3.1850861    27.953993 
    8460    1.0751468   -1315.0144    6.7264721    21841.436    3.1854554    27.952912 
    8470    1.0679288   -1315.0264     9.020857    21839.782    3.1856966    27.952207 
    8480    1.0604242   -1315.0375    9.5616352    21839.297    3.1857674       27.952 
    8490    1.0526898   -1315.0478    8.2507719    21840.045    3.1856583    27.952319 
    8500    1.0447932   -1315.0571    5.3531955    21841.851    3.1853949    27.953089 
    8510    1.0368102   -1315.0655    1.4421948    21844.337    3.1850323     27.95415 
    8520    1.0288223   -1315.0729   -2.7158069    21846.999    3.1846442    27.955286 
    8530    1.0209116   -1315.0794   -6.3126569    21849.301    3.1843088    27.956267 
    8540     1.013157   -1315.0852   -8.6553261     21850.78    3.1840932    27.956898 
    8550    1.0056309   -1315.0905   -9.2980133    21851.139    3.1840409    27.957051 
    8560   0.99839695   -1315.0953    -8.125464    21850.301     3.184163    27.956694 
    8570   0.99150952   -1315.0997    -5.373127    21848.422    3.1844369    27.955892 
    8580   0.98501442   -1315.1036   -1.5810181    21845.861    3.1848102      27.9548 
    8590   0.97895108   -1315.1069    2.5103956     21843.11    3.1852112    27.953627 
    8600   0.97335525   -1315.1096    6.1034752    21840.696    3.1855633    27.952597 
    8610   0.96826179   -1315.1119     8.498995     21839.08    3.1857991    27.951907 
    8620   0.96370702   -1315.1139    9.2335232    21838.564    3.1858743    27.951687 
    8630      0.95973   -1315.1158    8.1705538    21839.239    3.1857759    27.951975 
    8640   0.95637263   -1315.1173    5.5263064    21840.962    3.1855246     27.95271 
    8650    0.9536783   -1315.1186    1.8249231    21843.388    3.1851707    27.953745 
    8660   0.95168937   -1315.1194   -2.2070403     21846.04    3.1847841    27.954876 
    8670   0.95044366   -1315.1199    -5.784402    21848.396    3.1844407    27.955881 
    8680   0.94997042   -1315.1201   -8.2161026    21849.998    3.1842072    27.956564 
    8690   0.95028596   -1315.1202   -9.0373136    21850.536    3.1841288    27.956794 
    8700   0.95138964   -1315.1201   -8.0966587    21849.909    3.1842202    27.956526 
    8710   0.95326012   -1315.1199   -5.5833513    21848.243    3.1844629    27.955816 
    8720   0.95585254   -1315.1193   -1.9898681    21845.868    3.1848091    27.954803 
    8730   0.95909666   -1315.1182    1.9830474     21843.25    3.1851909    27.953686 
    8740   0.96289653   -1315.1165    5.5618861    21840.899    3.1855337    27.952683 
    8750   0.96713204   -1315.1143    8.0510686    21839.275    3.1857706    27.951991 
    8760   0.97166264   -1315.1115    8.9694449    21838.695    3.1858552    27.951743 
    8770   0.97633334   -1315.1083    8.1448886    21839.272    3.1857711    27.951989 
    8780    0.9809824   -1315.1046    5.7472648    21840.894    3.1855344    27.952681 
    8790   0.98544992      -1315.1    2.2529656    21843.249     3.185191    27.953686 
    8800   0.98958582   -1315.0946   -1.6511132    21845.885    3.1848067     27.95481 
    8810   0.99325629   -1315.0884   -5.2037106    21848.297    3.1844551    27.955839 
    8820   0.99634783   -1315.0813   -7.7175867    21850.029    3.1842026    27.956578 
    8830   0.99876908   -1315.0735   -8.7112211    21850.762    3.1840958     27.95689 
    8840    1.0004511    -1315.065   -7.9994554    21850.371    3.1841529    27.956723 
    8850    1.0013466   -1315.0558   -5.7271426    21848.953    3.1843595    27.956119 
    8860    1.0014297   -1315.0457   -2.3402433    21846.805    3.1846726    27.955203 
    8870    1.0006961   -1315.0346    1.5002958    21844.367     3.185028    27.954163 
    8880   0.99916273   -1315.0225     5.046311    21842.134    3.1853536     27.95321 
    8890   0.99686894   -1315.0095    7.6080477    21840.562    3.1855829    27.952539 
    8900   0.99387557   -1314.9956    8.6893863    21839.976    3.1856684    27.952289 
    8910   0.99026354    -1314.981    8.0853671     21840.51    3.1855904    27.952517 
    8920   0.98613047   -1314.9657    5.9217698    21842.083     3.185361    27.953189 
    8930   0.98158545   -1314.9496    2.6285432    21844.412    3.1850214    27.954182 
    8940   0.97674237   -1314.9326   -1.1469693     21847.07    3.1846339    27.955316 
    8950   0.97171218   -1314.9148   -4.6685021     21849.57    3.1842695    27.956382 
    8960   0.96659479   -1314.8963   -7.2546484    21851.459    3.1839943    27.957188 
    8970    0.9614716   -1314.8773   -8.4097438    21852.407    3.1838562    27.957592 
    8980   0.95639931   -1314.8579   -7.9174569    21852.269    3.1838763    27.957533 
[...]
   37860    123.31167   -1044.7591    9831.2219    19371.886    3.5915408    26.856988 
   37870    123.55581   -1043.4673    9861.2675    19368.657    3.5921396    26.855496 
   37880    123.74723   -1042.1808     9890.209    19365.333    3.5927563    26.853959 
   37890    123.91762   -1041.0851    9916.4654    19361.938    3.5933862     26.85239 
   37900     124.0911    -1040.427    9938.1073    19358.495    3.5940252    26.850798 
   37910    124.28064   -1040.0453    9956.1734    19355.024    3.5946697    26.849193 
   37920    124.48456   -1039.8085    9971.6589    19351.541    3.5953168    26.847582 
   37930    124.68285   -1039.5853    9985.7051    19348.058     3.595964    26.845972 
   37940     124.8432   -1039.4743    9997.9655    19344.587    3.5966092    26.844366 
   37950    124.92851   -1039.2731    10010.224     19341.14    3.5972502    26.842772 
   37960    124.90248   -1039.1484    10021.634    19337.726    3.5978854    26.841192 
   37970    124.74346   -1038.9919    10033.159    19334.354    3.5985127    26.839632 
   37980    124.44492   -1038.5178    10046.826    19331.036    3.5991305    26.838096 
   37990    124.02287    -1038.207    10059.152     19327.78    3.5997368     26.83659 
   38000     123.5145   -1037.8795    10071.084    19324.598    3.6003295    26.835117 
   38010    122.97478   -1037.7472     10080.73    19321.499     3.600907    26.833682 
   38020    122.46021   -1037.5547    10089.394     19318.49    3.6014678    26.832289 
   38030    122.02869   -1037.5891     10094.68    19315.579    3.6020106    26.830941 
   38040    121.72374    -1037.798    10096.714    19312.769    3.6025348     26.82964 
   38050    121.56519   -1038.3663    10094.175     19310.06    3.6030401    26.828386 
   38060    121.54831   -1039.1257    10088.472    19307.451     3.603527    26.827177 
   38070    121.64325   -1039.9477    10080.998    19304.935    3.6039965    26.826012 
   38080    121.79659   -1040.9899    10071.355    19302.507      3.60445    26.824887 
   38090     121.9433   -1041.7055    10064.163    19300.156     3.604889    26.823798 
   38100    122.01867   -1042.3584    10058.364    19297.877    3.6053147    26.822742 
   38110    121.97348   -1042.7429    10056.016    19295.664    3.6057283    26.821717 
   38120    121.78312   -1043.1309     10055.59    19293.514    3.6061301    26.820721 
   38130     121.4523   -1043.1249    10059.906    19291.426    3.6065203    26.819753 
   38140    121.01586   -1042.7918    10068.237    19289.405    3.6068983    26.818816 
   38150    120.52829   -1042.3293    10078.668    19287.456    3.6072627    26.817913 
   38160    120.05507   -1041.9317    10089.155    19285.588    3.6076122    26.817047 
   38170    119.65797   -1041.5472    10099.343    19283.808     3.607945    26.816223 
   38180    119.38133   -1041.2494    10108.124    19282.126    3.6082598    26.815443 
   38190    119.24669   -1041.2532    10113.634    19280.547    3.6085554    26.814711 
   38200    119.24742   -1041.2413    10117.978    19279.075    3.6088307    26.814029 
   38210    119.35645   -1041.5544    10118.892    19277.715    3.6090855    26.813398 
   38220    119.53696   -1041.9044    10118.627    19276.464    3.6093196    26.812818 
   38230    119.75056   -1042.2449    10117.763    19275.323    3.6095333    26.812289 
   38240    119.96959   -1042.5203    10116.906     19274.29    3.6097267     26.81181 
   38250    120.17341   -1042.8311    10115.474    19273.364    3.6099001     26.81138 
   38260      120.352   -1043.0956    10114.079    19272.543     3.610054       26.811 
   38270    120.50776   -1043.2988    10112.811    19271.824    3.6101886    26.810666 
   38280    120.64612   -1043.5028    10111.174    19271.207    3.6103043     26.81038 
   38290    120.77616   -1043.7992    10108.463    19270.688    3.6104016    26.810139 
   38300    120.90184   -1044.0752    10105.438    19270.264    3.6104808    26.809943 
   38310    121.01998   -1044.3304    10102.174    19269.934    3.6105427     26.80979 
   38320    121.11117   -1044.5895    10098.706    19269.693    3.6105879    26.809678 
   38330    121.13838   -1044.6785     10096.59    19269.538    3.6106169    26.809606 
   38340    121.05657    -1044.779    10094.983    19269.467    3.6106303    26.809573 
   38350     120.8252   -1044.7327    10095.373    19269.477    3.6106283    26.809578 
   38360    120.42503   -1044.3849    10099.061     19269.57     3.610611    26.809621 
   38370    119.86074   -1043.9069    10104.803    19269.746     3.610578    26.809703 
   38380    119.16901   -1043.0716    10113.913    19270.011    3.6105283    26.809825 
   38390    118.40169   -1042.2608    10123.286    19270.371    3.6104608    26.809993 
   38400    117.61415   -1041.4657    10132.501    19270.835     3.610374    26.810207 
   38410    116.85804   -1040.7441    10140.743    19271.408    3.6102666    26.810473 
   38420    116.17602   -1039.9179    10148.974    19272.097    3.6101375    26.810793 
   38430    115.60259   -1039.1634    10155.816    19272.909    3.6099854    26.811169 
   38440    115.16052   -1038.7843    10159.077    19273.848    3.6098096    26.811605 
   38450    114.87278   -1038.4421    10161.115    19274.916    3.6096095      26.8121 
   38460     114.7655   -1038.0433    10162.628    19276.115    3.6093849    26.812656 
   38470    114.86908   -1037.9128    10161.449    19277.445    3.6091359    26.813273 
   38480    115.20956   -1037.8995    10158.785    19278.904    3.6088628    26.813949 
   38490    115.80369   -1037.9397    10155.309    19280.489    3.6085661    26.814684 
   38500     116.6518   -1038.1556    10150.486    19282.197    3.6082466    26.815476 
   38510    117.71922   -1038.3264    10146.219    19284.022     3.607905    26.816322 
   38520    118.93363   -1038.4631    10142.777    19285.961    3.6075422    26.817221 
   38530    120.19338    -1038.554    10140.487     19288.01     3.607159     26.81817 
   38540    121.38209    -1038.352    10141.123    19290.167    3.6067557     26.81917 
   38550    122.40015    -1037.959    10143.853    19292.431    3.6063325    26.820219 
   38560    123.18007   -1037.5497    10147.195    19294.804    3.6058889    26.821319 
   38570    123.69183   -1037.1671    10150.523    19297.288    3.6054247     26.82247 
   38580    123.94404   -1036.5275    10155.487    19299.886    3.6049394    26.823673 
   38590    123.96858   -1035.6471    10161.645    19302.601    3.6044323    26.824931 
   38600    123.80946   -1034.9856     10165.45    19305.437    3.6039028    26.826245 
   38610    123.52402   -1034.2532    10168.586    19308.398    3.6033503    26.827616 
   38620    123.17039   -1033.7008    10168.975    19311.483    3.6027745    26.829045 
   38630    122.79775   -1033.3227    10166.394    19314.695    3.6021755    26.830532 
   38640    122.44103   -1032.9976    10161.586    19318.029    3.6015538    26.832076 
   38650    122.11191   -1032.7948    10154.174     19321.48    3.6009104    26.833674 
   38660    121.79862   -1032.6054     10145.23    19325.043    3.6002466    26.835323 
   38670    121.47714   -1032.4522    10135.042    19328.709    3.5995638    26.837019 
   38680     121.1204   -1032.5759    10122.355    19332.468    3.5988639    26.838759 
   38690    120.72148   -1032.6575    10109.698    19336.309     3.598149    26.840536 
   38700    120.29022   -1032.6733    10097.329    19340.221    3.5974211    26.842347 
   38710    119.85476   -1032.3806    10086.843    19344.194    3.5966822    26.844185 
   38720    119.45261   -1032.2384    10074.836    19348.218    3.5959343    26.846045 
   38730     119.1244   -1032.2445    10061.078    19352.281    3.5951793    26.847925 
   38740    118.90568   -1032.5379    10044.364    19356.373    3.5944193    26.849817 
   38750    118.82388   -1032.9276    10025.831    19360.478    3.5936572    26.851715 
   38760    118.89769   -1033.6053    10004.043    19364.581    3.5928957    26.853612 
   38770    119.13272   -1034.4264    9980.0282    19368.664    3.5921384    26.855499 
   38780    119.52294   -1035.4776    9953.3557    19372.705     3.591389    26.857366 
   38790    120.04664   -1036.3342    9927.2634    19376.683    3.5906517    26.859205 
   38800    120.67257   -1037.4942    9898.6583    19380.575    3.5899306    26.861003 
   38810    121.36384   -1038.7873     9869.154    19384.358    3.5892301     26.86275 
   38820    122.07895   -1040.0892    9840.1183    19388.005    3.5885549    26.864435 
   38830    122.76243   -1041.0876    9814.2823    19391.494    3.5879091    26.866046 
   38840    123.34779   -1042.1704    9789.5623    19394.804    3.5872969    26.867575 
   38850    123.76186    -1043.277    9766.9535    19397.913    3.5867219     26.86901 
   38860    123.94427    -1043.999    9749.7494    19400.804    3.5861874    26.870345 
   38870    123.85324   -1044.4449    9737.4108    19403.464    3.5856958    26.871573 
   38880     123.4822   -1044.3284    9731.8451    19405.884    3.5852488     26.87269 
   38890    122.85903   -1044.1427      9729.23    19408.059     3.584847    26.873694 
   38900    122.04337    -1043.533    9731.3601    19409.989    3.5844905    26.874585 
   38910    121.11949   -1043.0055    9733.9014    19411.676    3.5841788    26.875364 
   38920     120.1802   -1042.4072    9737.0507    19413.126    3.5839112    26.876032 
   38930    119.31659   -1041.8221    9739.4509    19414.341    3.5836869    26.876593 
   38940    118.60048   -1041.6724    9737.5727    19415.325    3.5835053    26.877047 
   38950    118.08095   -1041.8565     9731.773    19416.078    3.5833663    26.877395 
   38960     117.7791   -1042.4082    9721.7513    19416.596    3.5832707    26.877634 
   38970    117.68709   -1043.0044     9709.934    19416.872    3.5832197    26.877761 
   38980    117.77607   -1044.1574    9693.1692    19416.897    3.5832151    26.877773 
   38990    118.00376   -1045.3337    9675.6894    19416.659    3.5832591    26.877663 
   39000    118.32111   -1046.6821    9657.0411    19416.144    3.5833542    26.877425 
   39010    118.68155   -1047.7203    9641.1358    19415.337    3.5835031    26.877053 
   39020     119.0397   -1048.8547    9625.6529    19414.228    3.5837078    26.876541 
   39030    119.35786   -1050.1103    9610.8461    19412.805    3.5839706    26.875884 
   39040    119.60696   -1051.2056    9599.0449    19411.057    3.5842933    26.875078 
   39050    119.76061    -1052.107     9590.802    19408.976    3.5846775    26.874117 
   39060    119.79498   -1052.6842    9587.2997    19406.558    3.5851242    26.873001 
   39070    119.69214     -1052.96    9588.6069    19403.801    3.5856335    26.871729 
   39080    119.44087   -1053.1347    9593.4603     19400.71    3.5862049    26.870301 
   39090    119.04757   -1052.8906    9604.0751     19397.29    3.5868372    26.868722 
   39100    118.53334    -1052.567    9617.9489    19393.552    3.5875285    26.866997 
   39110     117.9345   -1051.8838    9636.7424    19389.511    3.5882761    26.865131 
   39120    117.29535   -1051.1609    9657.8628    19385.186    3.5890768    26.863133 
   39130    116.66128   -1050.3514    9681.2206    19380.595    3.5899269    26.861012 
   39140    116.07831   -1049.3366    9707.2328    19375.761    3.5908225    26.858779 
   39150    115.58672   -1048.4585    9733.1458    19370.708    3.5917593    26.856443 
   39160    115.21833   -1047.7538    9758.3861    19365.458    3.5927329    26.854017 
   39170    114.99455   -1047.0255    9784.1091    19360.037    3.5937391    26.851511 
   39180    114.92439   -1046.5514    9808.2827    19354.466    3.5947735    26.848935 
   39190     115.0061   -1046.0542    9832.8365    19348.767    3.5958322      26.8463 
   39200    115.23342   -1045.4223    9858.6182    19342.963    3.5969111    26.843615 
   39210    115.59421   -1045.0267    9883.1129    19337.077    3.5980061    26.840892 
   39220    116.08597   -1044.6372    9907.9776    19331.129    3.5991131     26.83814 
   39230    116.71048   -1044.3727    9932.3653    19325.142    3.6002282    26.835368 
   39240    117.47546   -1044.0905    9957.1957    19319.136    3.6013474    26.832588 
   39250    118.39028   -1043.7743    9982.4852    19313.134    3.6024666    26.829809 
   39260    119.45531   -1043.3996     10008.33    19307.156     3.603582    26.827041 
   39270    120.65648   -1043.1511    10033.432    19301.225    3.6046894    26.824293 
   39280    121.95819   -1042.9258    10058.549    19295.361    3.6057849    26.821576 
   39290    123.30805   -1042.7117    10083.854    19289.585    3.6068646      26.8189 
   39300    124.63482     -1042.24    10111.318    19283.919    3.6079243    26.816274 
   39310    125.85938   -1041.9052    10138.281    19278.385      3.60896    26.813708 
   39320    126.90499   -1041.1994    10168.335    19273.005    3.6099674    26.811214 
   39330    127.71344   -1040.3237    10200.002    19267.804     3.610942    26.808802 
   39340    128.25549   -1039.3869    10232.251    19262.806    3.6118788    26.806484 
   39350    128.53876   -1038.2416    10265.638    19258.038     3.612773    26.804272 
   39360    128.59951   -1036.8922     10299.52    19253.527    3.6136195    26.802179 
   39370    128.48471   -1035.5212    10331.993    19249.299    3.6144132    26.800217 
   39380    128.23272   -1034.3915    10360.695    19245.379    3.6151493    26.798398 
   39390    127.86185   -1033.2933    10386.765     19241.79    3.6158236    26.796732 
   39400    127.36833   -1032.4274    10408.669    19238.551    3.6164324    26.795228 
   39410    126.73424   -1031.6804    10427.214    19235.678    3.6169725    26.793894 
   39420    125.93439   -1031.0512    10442.464    19233.185    3.6174414    26.792736 
   39430    124.95449   -1030.4762    10454.916    19231.082    3.6178371     26.79176 
   39440    123.79361   -1029.7523    10465.983    19229.376     3.618158    26.790967 
   39450    122.47516   -1029.3291    10472.484    19228.074     3.618403    26.790363 
   39460    121.05115   -1029.0295    10475.648    19227.179    3.6185713    26.789947 
   39470    119.59738   -1028.7776    10476.025    19226.692     3.618663    26.789721 
   39480    118.20818   -1028.7244    10472.619     19226.61    3.6186785    26.789683 
   39490    116.97761   -1028.8722    10465.492    19226.927    3.6186188     26.78983 
   39500    115.98244   -1029.2439    10454.577    19227.635    3.6184855    26.790159 
   39510    115.26546   -1029.6744    10441.158    19228.723    3.6182808    26.790664 
   39520    114.83228   -1030.2737     10424.66    19230.177    3.6180072     26.79134 
   39530    114.65679   -1031.0578    10405.248    19231.981    3.6176678    26.792177 
   39540      114.694   -1032.0802    10382.874    19234.117    3.6172661    26.793169 
   39550    114.89061   -1033.0203    10360.111    19236.564    3.6168061    26.794305 
   39560    115.19701   -1034.1054    10335.689      19239.3    3.6162916    26.795576 
   39570    115.56804   -1035.1983    10310.844    19242.305    3.6157269    26.796971 
   39580    115.96563   -1036.0952    10287.241    19245.555    3.6151163    26.798479 
   39590    116.35831   -1037.1632    10262.489     19249.03    3.6144638    26.800092 
   39600    116.72604   -1037.9224     10240.02    19252.706    3.6137735    26.801798 
   39610    117.06497    -1038.626    10218.015    19256.565    3.6130493    26.803589 
   39620    117.39101   -1039.3567     10195.72    19260.587     3.612295    26.805454 
   39630     117.7299   -1040.1363    10172.724    19264.751    3.6115142    26.807386 
   39640    118.10854   -1040.8642    10149.496    19269.037    3.6107108    26.809374 
   39650    118.54141   -1041.7163    10124.718    19273.425    3.6098887    26.811409 
   39660    119.02069    -1042.639    10098.894    19277.894    3.6090518    26.813481 
   39670    119.51435   -1043.5927    10072.643    19282.422    3.6082045     26.81558 
   39680    119.97501   -1044.3429    10048.096    19286.985    3.6073508    26.817695 
   39690    120.35311   -1045.0442    10024.726    19291.563    3.6064948    26.819817 
   39700    120.60199   -1045.6073    10003.633    19296.136    3.6056401    26.821935 
   39710     120.6939    -1045.919    9985.9208    19300.686    3.6047901    26.824044 
   39720    120.62391   -1046.1904    9970.1828    19305.198    3.6039476    26.826134 
   39730    120.41439   -1046.1779    9957.9205    19309.659    3.6031149      26.8282 
   39740    120.11381   -1046.1646    9946.7534    19314.059    3.6022941    26.830238 
   39750    119.78289   -1046.0564    9936.7993    19318.389    3.6014867    26.832242 
   39760    119.47882   -1046.0237     9926.309     19322.64    3.6006943    26.834211 
   39770    119.25147    -1045.932    9915.7596    19326.805    3.5999184    26.836138 
   39780    119.13402   -1046.1148    9902.5178    19330.873    3.5991608    26.838021 
   39790    119.14451   -1046.4677     9887.185    19334.835    3.5984233    26.839855 
   39800    119.28341   -1047.0589    9869.3258    19338.678    3.5977082    26.841632 
   39810    119.53951   -1047.6223    9850.9819    19342.387    3.5970184    26.843348 
   39820    119.89217   -1048.1496    9832.5045    19345.947    3.5963563    26.844995 
   39830    120.31716   -1048.7754    9813.3281    19349.344    3.5957249    26.846567 
   39840    120.78758   -1049.3358    9795.0088    19352.563     3.595127    26.848055 
   39850     121.2782   -1050.0357    9776.5687    19355.587    3.5945652    26.849453 
   39860    121.76558   -1050.5401    9760.8141    19358.403    3.5940423    26.850756 
   39870    122.22445   -1050.9985    9747.1837    19360.999    3.5935605    26.851956 
   39880    122.63361   -1051.1185    9738.1899    19363.364    3.5931215    26.853049 
   39890    122.97909     -1051.08    9733.0455    19365.492    3.5927267    26.854033 
   39900    123.25137   -1050.7939    9732.7733     19367.38    3.5923765    26.854905 
   39910    123.44698    -1050.204    9738.0909    19369.029    3.5920706    26.855667 
   39920    123.56046   -1049.5032    9747.8658    19370.445    3.5918081    26.856322 
   39930    123.58489   -1048.3554    9764.4825    19371.638    3.5915869    26.856873 
   39940    123.51479   -1047.0106    9786.0286    19372.623    3.5914043    26.857328 
   39950    123.35318   -1045.1358     9814.349     19373.42    3.5912565    26.857697 
   39960     123.1197   -1043.0993    9846.0893    19374.054    3.5911389     26.85799 
   39970    122.85589   -1041.0126    9879.3965    19374.554    3.5910462    26.858221 
   39980    122.62289    -1038.941    9912.5898    19374.949    3.5909731    26.858403 
   39990     122.4841   -1037.2168    9942.1515    19375.266    3.5909143     26.85855 
   40000    122.49241   -1035.5103    9969.3971    19375.532     3.590865    26.858673 
Loop time of 4.63284 on 1 procs for 20000 steps with 500 atoms

Performance: 372.989 ns/day, 0.064 hours/ns, 4317.005 timesteps/s
99.0% CPU use with 1 MPI tasks x no OpenMP threads

MPI task timing breakdown:
Section |  min time  |  avg time  |  max time  |%varavg| %total
---------------------------------------------------------------
Pair    | 3.9345     | 3.9345     | 3.9345     |   0.0 | 84.93
Neigh   | 0.10503    | 0.10503    | 0.10503    |   0.0 |  2.27
Comm    | 0.1465     | 0.1465     | 0.1465     |   0.0 |  3.16
Output  | 0.015967   | 0.015967   | 0.015967   |   0.0 |  0.34
Modify  | 0.37825    | 0.37825    | 0.37825    |   0.0 |  8.16
Other   |            | 0.0526     |            |       |  1.14

Nlocal:    500 ave 500 max 500 min
Histogram: 1 0 0 0 0 0 0 0 0 0
Nghost:    1436 ave 1436 max 1436 min
Histogram: 1 0 0 0 0 0 0 0 0 0
Neighs:    13490 ave 13490 max 13490 min
Histogram: 1 0 0 0 0 0 0 0 0 0

Total # of neighbors = 13490
Ave neighs/atom = 26.98
Neighbor list builds = 168
Dangerous builds = 0
Total wall time: 0:00:09
