LAMMPS (7 Aug 2019)
Reading data file ...
  orthogonal box = (-1.4719 -1.4719 -1.4719) to (26.4719 26.4719 26.4719)
  1 by 1 by 1 MPI processor grid
  reading atoms ...
  500 atoms
  reading velocities ...
  500 velocities
  read_data CPU = 0.00553107 secs
Neighbor list info ...
  update every 1 steps, delay 10 steps, check yes
  max neighbors/atom: 2000, page size: 100000
  master list distance cutoff = 8
  ghost atom cutoff = 8
  binsize = 4, bins = 7 7 7
  1 neighbor lists, perpetual/occasional/extra = 1 0 0
  (1) pair lj/cut, perpetual
      attributes: half, newton on
      pair build: half/bin/atomonly/newton
      stencil: half/bin/3d/newton
      bin: standard
Setting up Verlet run ...
  Unit style    : real
  Current step  : 0
  Time step     : 1
Per MPI rank memory allocation (min/avg/max) = 3.998 | 3.998 | 3.998 Mbytes
Step Temp PotEng Press Volume Density Lx 
       0   0.94924373   -1315.7856    26.487323    21820.062    3.1885758    27.943791 
      10   0.87491804   -1123.4993   -1724.4092    24606.882    2.8274578    29.086102 
      20   0.94361751   -1315.6326   -170.31476     21952.85    3.1692888    28.000361 
      30   0.95753335   -1314.2648    592.11659    21474.659    3.2398615     27.79556 
      40   0.94817966   -1315.7625    46.495175    21807.134     3.190466    27.938271 
      50    0.9433369   -1315.4346   -252.75249    22010.871    3.1609345    28.025008 
      60   0.96356908   -1313.2778    767.72132    21376.816    3.2546905    27.753281 
      70   0.95187046    -1315.747   -15.850895    21848.425    3.1844364    27.955894 
      80   0.95141283    -1315.589     -170.755    21953.624     3.169177    28.000691 
      90   0.99371659    -1297.594    2294.9696     20657.23    3.3680663     27.43831 
     100   0.97273139   -1313.7072    687.22571     21421.68    3.2478741    27.772683 
     110   0.96583748   -1315.5703    172.59638    21726.893     3.202249    27.903962 
     120    0.9448194   -1311.4094   -860.38125     22487.41    3.0939499    28.225814 
     130   0.97468466   -1313.9726    630.28649    21454.016    3.2429789    27.786651 
     140   0.94122259   -1310.5001    -936.5239    22554.663    3.0847245    28.253924 
     150   0.95136645    -1315.035   -341.73148    22076.194    3.1515813    28.052704 
     160   0.91754769   -1272.0239   -1370.3989    23155.295    3.0047089    28.502532 
     170     0.871717   -1118.3691   -1821.1246    24801.338     2.805289    29.162519 
     180   0.93780535   -1315.1689   -286.13722    22036.501    3.1572581    28.035881 
     190    0.9325257   -1315.0874   -306.16532    22051.097    3.1551682     28.04207 
     200    0.9041567   -1302.5764   -1267.6186    22886.003    3.0400643    28.391607 
     210   0.92718838   -1315.5357   -2.4096373    21841.647    3.1854246    27.953002 
     220   0.92316368   -1315.4957    67.089708    21796.283    3.1920544    27.933637 
     230   0.91942842   -1315.2992    207.75853    21706.795    3.2052138    27.895356 
     240    0.9268951   -1311.1945    1026.8724    21241.491    3.2754254    27.694594 
     250   0.92813846   -1307.8543    1404.2357    21053.681     3.304644     27.61273 
     260   0.92519691   -1306.9468     1492.504    21011.886    3.3112174    27.594446 
     270   0.88853108   -1313.9637   -517.35521    22210.266    3.1325568    28.109379 
     280   0.93072591   -1295.6612    2408.4519    20614.052     3.375121     27.41918 
     290   0.88270679   -1314.2472   -456.86966    22164.563    3.1390161    28.090085 
     300   0.83314699   -1137.4664   -1366.8783    24012.452    2.8974517    28.849979 
     310   0.89376353   -1313.7265    606.43865    21470.827    3.2404396    27.793907 
     320   0.85711944   -1307.4212   -1070.4389    22685.935    3.0668747    28.308633 
     330   0.87881493    -1315.052    216.13347    21703.709    3.2056697    27.894033 
     340   0.89348723   -1307.1519    1453.2452    21032.061     3.308041    27.603275 
     350   0.78892744   -1107.2647   -1991.2783    25192.306    2.7617527     29.31496 
     360   0.87665799   -1312.4192    813.38771    21357.061     3.257701     27.74473 
     370   0.86699306   -1314.3414    431.09837    21573.858    3.2249643    27.838293 
     380   0.84863146   -1314.3212   -393.52411    22119.321    3.1454365     28.07096 
     390    0.8699506   -1309.3651    1204.3975    21154.327    3.2889214    27.656661 
     400   0.85533071   -1314.6147    323.95019    21638.865    3.2152758    27.866226 
     410   0.80666089   -1181.4668   -1234.0302    23563.736    2.9526269    28.669143 
     420   0.84035461   -1314.4853   -323.73412    22069.143    3.1525882    28.049717 
     430    0.8264657   -1310.9301   -821.02992    22461.802    3.0974772    28.215096 
     440   0.84822174   -1313.3112     621.9779     21464.96    3.2413254    27.791375 
     450   0.82580949   -1313.3368   -545.51565    22236.651    3.1288399    28.120506 
     460   0.86275667   -1300.1358    2039.2363    20770.631    3.3496778    27.488427 
     470   0.77227567   -1129.4315   -1569.5223    24341.909     2.858236    28.981323 
     480   0.79653877    -1264.198   -1254.0565    23090.124    3.0131895    28.475766 
     490    0.8540677   -1297.8732    2206.1338    20700.972    3.3609495    27.457663 
     500   0.83074711   -1312.9621    655.75482      21447.4    3.2439792    27.783794 
     510   0.82506683   -1313.9173    440.66831    21571.644    3.2252951    27.837341 
     520   0.81164565   -1314.5551   -192.71712    21978.552    3.1655825    28.011285 
     530   0.80487091   -1314.0528   -355.73905     22095.56    3.1488191    28.060905 
     540   0.78484314   -1294.5637   -1113.2714    22793.879    3.0523511    28.353461 
     550   0.75910065   -1151.2763   -1321.8839    23865.591    2.9152817    28.791043 
     560   0.80041742   -1314.5862    -85.04234    21905.595    3.1761256    27.980256 
     570    0.7993592   -1314.5545    92.063529    21788.687    3.1931672    27.930391 
     580    0.7873387   -1313.2297   -479.49728    22190.093    3.1354046    28.100866 
     590   0.79887223   -1313.7775    411.50448    21591.159    3.2223801    27.845733 
     600   0.79896438   -1313.2657    531.11657    21521.211    3.2328534     27.81563 
     610   0.81494962   -1299.0824    2085.1274    20754.682    3.3522518     27.48139 
     620   0.77750101   -1313.6922   -362.98767    22103.878    3.1476342    28.064425 
     630   0.75867313   -1290.7701   -1094.1652    22798.476    3.0517356    28.355367 
     640   0.72854457   -1140.3592   -1426.5242    24073.578    2.8900947    28.874439 
     650   0.77478134   -1314.3025    85.845245    21795.122    3.1922244    27.933141 
     660   0.77868788   -1313.4733    432.67261    21580.647    3.2239497    27.841213 
     670   0.76522437   -1313.9545   -237.46077    22014.764    3.1603755     28.02666 
     680   0.74807959   -1293.6814   -1042.1246    22738.222    3.0598223    28.330365 
     690   0.78918578   -1301.8374    1841.0805    20862.608    3.3349101    27.528943 
     700   0.77001512   -1312.7346    574.76068    21499.048    3.2361861    27.806078 
     710   0.75612983   -1314.0168   -152.55145    21956.548     3.168755    28.001933 
     720   0.76060169    -1313.813    252.63723     21691.68    3.2074473    27.888879 
     730   0.74950873   -1313.4945   -309.80841     22068.84    3.1526315    28.049589 
     740   0.74691191   -1313.5245   -297.77929     22060.38    3.1538405    28.046004 
     750   0.74742332    -1313.955   -94.116106    21917.817    3.1743545    27.985459 
     760   0.74590949   -1313.9643   -20.696744    21868.708    3.1814829    27.964542 
     770   0.72420406   -1288.2996   -1060.3946    22784.294    3.0536351    28.349486 
     780   0.76720875   -1300.4954     1926.586    20827.585     3.340518    27.513529 
     790   0.74429996   -1313.5368    269.11299     21683.78    3.2086159    27.885493 
     800   0.72735429   -1307.7601   -715.48259    22399.637    3.1060736    28.189042 
     810   0.69831964   -1162.5353   -1355.4469     23835.22    2.9189963    28.778825 
     820   0.72824688   -1309.0387   -649.00655    22342.139    3.1140672    28.164902 
     830   0.73671125    -1313.485   -182.02186    21981.498    3.1651583    28.012536 
     840   0.69385403   -1143.5028   -1452.2662    24088.731    2.8882766    28.880496 
     850   0.75256057    -1310.054    934.97494    21305.471    3.2655895    27.722371 
     860   0.75805599   -1307.5473    1240.2299    21149.327     3.289699    27.654482 
     870    0.7558088   -1309.8368    955.47798    21295.295    3.2671498    27.717957 
     880   0.75236009   -1312.0515    589.37302    21496.519    3.2365668    27.804988 
     890   0.74502318   -1313.4832    96.247192     21796.46    3.1920285    27.933712 
     900   0.74470532   -1313.4396    78.299822    21808.535    3.1902611     27.93887 
     910   0.74635578   -1313.2933    190.29544    21737.092    3.2007464    27.908328 
     920   0.76674671   -1302.2199    1740.4304    20914.413    3.3266495     27.55171 
     930   0.75799508   -1310.8055    783.22835    21389.711    3.2527284    27.758861 
     940   0.76782302   -1305.6806    1410.0073    21068.873    3.3022611     27.61937 
     950   0.76692028   -1309.3596    984.28672    21282.689     3.269085    27.712487 
     960   0.76999276   -1309.9899    892.66942    21331.469    3.2616094    27.733643 
     970   0.76670261   -1312.6534    370.63257    21627.872      3.21691    27.861507 
     980   0.77536399   -1311.5578    623.70157     21480.18    3.2390288    27.797942 
     990   0.77217507   -1313.0196     175.1622    21749.491    3.1989218    27.913633 
    1000   0.79073151   -1307.4958    1194.9942    21176.178    3.2855277     27.66618 
    1010   0.78848091   -1311.6375    590.20657    21500.173    3.2360168    27.806563 
    1020   0.78989966   -1312.4307    386.17732    21620.154    3.2180585    27.858192 
    1030   0.80146143   -1310.9735    704.66033    21436.133    3.2456842    27.778928 
    1040   0.82023156   -1302.1595    1713.7457    20929.863    3.3241938    27.558493 
    1050   0.82321217   -1305.2653    1419.0921    21067.618    3.3024579    27.618821 
    1060    0.8276052   -1307.6692    1155.4901    21197.722    3.2821886    27.675559 
    1070   0.82817281   -1311.1742    648.82776    21468.562    3.2407815    27.792929 
    1080    0.8393833   -1309.6589    891.43018    21335.553    3.2609851    27.735413 
    1090   0.84929325   -1308.6366    1027.0549    21264.333    3.2719069    27.704518 
    1100   0.86535219   -1303.6091    1567.5823     20998.63    3.3133075    27.588642 
    1110   0.85778577   -1311.8797    471.47708    21571.955    3.2252488    27.837475 
    1120   0.87163471   -1309.8711    845.46022    21361.295    3.2570553    27.746563 
    1130   0.88101265   -1309.3667    915.47379    21324.007    3.2627508    27.730409 
    1140   0.88953397   -1309.3621    912.80096    21325.674    3.2624957    27.731131 
    1150   0.89593017   -1310.3394    760.80123    21408.205    3.2499184    27.766859 
    1160   0.91614797    -1303.285    1584.5248    20992.139    3.3143321    27.585799 
    1170   0.91649858   -1308.7678    985.04845    21288.207    3.2682376    27.714882 
    1180   0.92876705    -1307.309    1163.8743    21196.411    3.2823916    27.674988 
    1190   0.93018485   -1310.7697    671.31432    21458.908    3.2422396    27.788762 
    1200   0.94211259   -1309.6311    854.71155    21358.177    3.2575309    27.745213 
    1210   0.95056097   -1309.9692    799.82601     21388.17    3.2529627    27.758194 
    1220   0.97004334   -1304.0838    1496.7214    21034.571    3.3076463    27.604373 
    1230   0.97749566   -1305.5393    1348.2968    21105.984    3.2964546    27.635577 
    1240   0.98364785    -1307.636    1111.0101    21224.484      3.27805    27.687201 
    1250   0.99095448   -1308.4117    1011.4145    21276.067    3.2701025    27.709613 
    1260    1.0082539   -1303.7543    1521.7411    21023.482    3.3093909    27.599521 
    1270    1.0175327   -1303.8038    1515.5038    21026.581    3.3089031    27.600877 
    1280    1.0204076   -1307.4917    1120.7574     21220.19    3.2787134    27.685333 
    1290    1.0269822   -1308.6998     965.2206    21300.929    3.2662857    27.720401 
    1300    1.0320907   -1310.1956    739.38399     21422.99    3.2476755    27.773249 
    1310    1.0553225   -1302.7958    1605.6583    20984.984    3.3154621    27.582665 
    1320    1.0574274    -1306.855    1190.2079    21185.551    3.2840742    27.670261 
    1330    1.0670984   -1306.4943    1230.2021    21165.629    3.2871653    27.661585 
    1340    1.0692057   -1309.2956    874.64828    21349.671    3.2588287    27.741529 
    1350    1.0832387   -1306.6031     1216.524    21172.617    3.2860803    27.664629 
    1360    1.0935704   -1305.1617    1371.6816    21096.296    3.2979685    27.631348 
    1370    1.0960361   -1307.5768     1101.444     21230.94    3.2770532    27.690008 
    1380    1.0957555   -1310.1427    739.81379    21423.408    3.2476122     27.77343 
    1390    1.1167145   -1302.9897     1584.099    20995.501    3.3138014    27.587271 
    1400    1.1208797   -1303.5662    1529.8876    21020.858     3.309804    27.598373 
    1410    1.1236984   -1304.3669     1452.317    21057.586    3.3040311    27.614437 
    1420    1.1306632   -1302.0638    1669.7994    20955.884    3.3200662    27.569909 
    1430    1.1304114   -1303.7457    1514.1766    21028.159    3.3086548    27.601568 
    1440    1.1199832   -1309.2573    881.97833    21345.797    3.2594201    27.739851 
    1450    1.1183577   -1309.7605    807.62689    21385.913     3.253306    27.757218 
    1460    1.1297807   -1304.2057    1472.4352    21047.677    3.3055867    27.610105 
    1470    1.1194221   -1308.2053    1030.3332    21267.182    3.2714688    27.705754 
    1480    1.1245484   -1303.9399    1501.1676    21033.809     3.307766     27.60404 
    1490    1.1095727   -1309.2508    892.64326    21339.482    3.2603846    27.737115 
    1500    1.1038068   -1309.6628    834.32306    21370.715    3.2556197    27.750641 
    1510     1.112397   -1303.5698    1541.9398    21014.132    3.3108635    27.595429 
    1520    1.1010155   -1307.4183    1138.8396     21210.62    3.2801926    27.681171 
    1530    1.0956133   -1307.7019    1107.5146    21226.371    3.2777587    27.688021 
    1540    1.0835397   -1310.6895    679.38675    21455.301    3.2427847    27.787205 
    1550    1.0856742   -1308.9819     949.1762    21308.197    3.2651716    27.723554 
    1560    1.0843915   -1308.4862    1018.9585    21271.345    3.2708284    27.707562 
    1570    1.0832137   -1307.8365    1104.2087    21227.096    3.2776466    27.688336 
    1580    1.0746788   -1310.8363    673.25795    21457.689    3.2424237    27.788236 
    1590    1.0776191   -1309.9716     822.8462    21374.789    3.2549992    27.752404 
    1600    1.0893499   -1304.5117    1475.0396    21043.557    3.3062339    27.608303 
    1610    1.0927133   -1303.2378    1599.6991    20984.761    3.3154974    27.582567 
    1620    1.0782576   -1311.3101    608.84631    21492.893    3.2371128    27.803425 
    1630    1.0922544   -1306.4341    1288.2285    21132.978     3.292244    27.647353 
    1640    1.0802484   -1311.9188    492.91377    21559.183    3.2271593     27.83198 
    1650    1.0873685   -1311.0965    670.98767    21456.702     3.242573     27.78781 
    1660    1.0935453    -1310.465    785.50235    21392.848    3.2522515    27.760218 
    1670    1.1144976   -1301.7963    1749.8015    20914.193    3.3266844    27.551614 
    1680    1.1053021   -1309.1895     982.9034     21286.38    3.2685183    27.714089 
    1690    1.1079166   -1309.3657    964.79973     21295.52    3.2671154    27.718055 
    1700    1.1181702   -1305.6872    1396.4613    21077.831    3.3008577    27.623284 
    1710    1.1192876   -1305.8905    1379.9334    21085.444    3.2996658    27.626609 
    1720    1.1211017   -1304.7001    1502.9978    21026.288    3.3089492    27.600749 
    1730    1.1181523   -1307.5004    1215.3694    21165.573    3.2871739    27.661561 
    1740    1.1226433   -1307.6215    1206.4451    21169.668    3.2865381    27.663344 
    1750    1.1312064   -1303.1588    1659.0254    20952.631    3.3205816    27.568482 
    1760    1.1246624    -1308.835    1072.1109    21237.062    3.2761085    27.692669 
    1770    1.1156209   -1312.2693    535.85734    21529.178    3.2316571    27.819062 
    1780    1.1408297   -1302.6893    1712.5654    20927.129     3.324628    27.557293 
    1790    1.1223288   -1312.4128    517.39925    21539.188    3.2301552    27.823373 
    1800    1.1458659   -1303.5031    1647.4512    20956.124     3.320028    27.570014 
    1810    1.1365777   -1309.8089    973.89636    21286.181    3.2685488    27.714002 
    1820    1.1472286    -1306.204    1396.2536    21073.508    3.3015349    27.621395 
    1830    1.1456765   -1306.9617    1321.7671    21109.264    3.2959426    27.637008 
    1840    1.1394253   -1309.0653    1086.3717    21226.675    3.2777116    27.688153 
    1850    1.0988394   -1304.6939   -824.65979     22503.54    3.0917323    28.232561 
    1860     1.074535   -1230.4731   -1251.5258     23291.46    2.9871429    28.558293 
    1870    1.0759175   -1248.0373   -1230.6714    23167.328    3.0031482    28.507468 
    1880    1.1547076   -1302.6714     1752.308    20905.493    3.3280688    27.547793 
    1890    1.1610467   -1300.4303    1944.2555    20820.173    3.3417071    27.510265 
    1900    1.1390719   -1312.5438    595.94286    21489.409    3.2376377    27.801922 
    1910    1.1647697   -1301.3302    1877.5394    20848.635     3.337145    27.522796 
    1920    1.1417745   -1313.1048     491.6741    21548.822    3.2287111     27.82752 
    1930    1.1407692   -1313.7946    303.34976    21661.084    3.2119778    27.875761 
    1940    1.1456389   -1313.4524    425.11164    21587.219    3.2229681    27.844039 
    1950    1.1392048   -1314.2212    104.22515     21785.39    3.1936504    27.928982 
    1960     1.144088   -1314.1021     228.7482    21705.902    3.2053458    27.894973 
    1970    1.1538662    -1313.032     557.8713    21508.323    3.2347905    27.810077 
    1980    1.1721255   -1307.0301    1383.2042    21073.662    3.3015107    27.621462 
    1990    1.1528789    -1313.403    493.70499    21544.675    3.2293325    27.825735 
    2000    1.1477533    -1314.416    146.80125    21755.807    3.1979931    27.916335 
    2010    1.1557623   -1313.2259    553.79339    21508.971    3.2346931    27.810356 
    2020    1.1541657     -1313.94    385.67362    21607.329    3.2199685    27.852683 
    2030    1.1435541   -1314.6213   -61.974874    21891.235     3.178209    27.974141 
    2040    1.0616971   -1127.3663   -1613.3014    24422.722    2.8487783     29.01336 
    2050    1.0772678   -1144.0979   -1334.1817    23931.088    2.9073029    28.817357 
    2060    1.1547628   -1313.9343    435.43331    21575.981    3.2246468    27.839207 
    2070     1.166268   -1311.2233    934.47526    21296.555    3.2669566    27.718504 
    2080    1.1817359   -1301.1467    1953.8861    20808.848    3.3435258    27.505276 
    2090    1.1220661   -1310.1068   -840.97065    22483.774    3.0944503    28.224293 
    2100    1.1859381    -1296.725    2299.4776    20662.544    3.3672001    27.440663 
    2110     1.149312   -1314.3738    366.90756    21614.857    3.2188471    27.855917 
    2120    1.1507531   -1313.6317    564.29694    21498.443    3.2362772    27.805817 
    2130      1.12318   -1313.3929   -551.34543    22241.228    3.1281961    28.122435 
    2140    1.1492872   -1312.6051    767.73762    21383.617    3.2536553    27.756225 
    2150    1.1428118   -1313.4472    624.16418    21463.218    3.2415885    27.790623 
    2160     1.141553   -1313.0252    708.47217    21415.611    3.2487945     27.77006 
    2170    1.1309267   -1314.5298    385.14481    21601.695    3.2208084    27.850262 
    2180    1.1331514   -1312.8294    753.10577    21390.298    3.2526391    27.759115 
    2190    1.1190451   -1314.0384    527.80032    21517.038    3.2334804    27.813832 
    2200     1.117021   -1313.3328    675.97891    21432.442    3.2462432    27.777333 
    2210    1.1185817   -1310.9624    1035.9681    21238.681    3.2758588    27.693372 
    2220    1.1025053   -1313.9668    562.05087    21496.428    3.2365805    27.804949 
    2230    1.0957139   -1314.0421    551.33492    21502.323    3.2356932     27.80749 
    2240     1.051462   -1308.2114   -1057.0867    22670.319    3.0689872    28.302136 
    2250    1.0652514   -1315.0496   -262.24374    22021.686    3.1593821    28.029597 
    2260     1.045548   -1312.2901    -745.3397    22392.983    3.1069966    28.186251 
    2270    1.0526937   -1315.3929   -102.94207    21910.289    3.1754452    27.982254 
    2280    1.0339111   -1313.5457   -592.37465    22268.522    3.1243619    28.133934 
    2290   0.95844517   -1122.5108    -1738.703    24639.355    2.8237314    29.098892 
    2300   0.99242739      -1278.2   -1358.6133    23109.152    3.0107085    28.483586 
    2310    1.0081954   -1313.3064   -632.63506     22299.95    3.1199585    28.147163 
    2320   0.93079215    -1117.848   -1828.8785    24819.186    2.8032717    29.169513 
    2330    0.9725334    -1298.242   -1314.7391    22953.916    3.0310697    28.419664 
    2340   0.98842654   -1314.6735   -406.94454    22125.371    3.1445764    28.073519 
    2350   0.97232082   -1312.1298   -776.82424    22417.675    3.1035743    28.196607 
    2360   0.99059709   -1314.5988    469.64319    21547.586    3.2288963    27.826988 
    2370   0.98573102    -1313.975    609.46357    21466.845    3.2410408    27.792188 
    2380   0.96524007   -1315.5154   -110.96811    21914.237     3.174873    27.983935 
    2390   0.94296253   -1311.6751   -825.17788    22458.354    3.0979528    28.213652 
    2400   0.95879554   -1315.3327    237.77065    21687.274    3.2080989    27.886991 
    2410   0.95115306   -1315.4988    142.38801    21747.215    3.1992566    27.912659 
    2420   0.98321005   -1292.1602    2664.2668    20511.765     3.391952    27.373753 
    2430   0.95731072   -1310.4693    1132.1664    21186.588    3.2839135    27.670712 
    2440   0.94809848   -1312.8628    807.55925    21356.711    3.2577544    27.744578 
    2450   0.95087751   -1309.8787    1201.1256    21151.928    3.2892945    27.655615 
    2460   0.86456053   -1130.9175   -1544.6222    24291.896    2.8641206    28.961461 
    2470   0.93048175   -1315.3705    217.59322     21699.85    3.2062396     27.89238 
    2480   0.95050027   -1306.5738    1543.3238    20986.812    3.3151734    27.583465 
    2490    0.9190913   -1314.9464   -346.54016    22080.472    3.1509707    28.054516 
    2500   0.95135374   -1306.7932    1521.2257    20997.263    3.3135233    27.588043 
    2510   0.92883616   -1315.5614    14.293575    21830.448    3.1870587    27.948224 
    2520   0.92356057   -1314.7511   -390.40422    22112.973    3.1463394    28.068274 
    2530   0.86876304   -1129.1988   -1588.3723    24365.968    2.8554137    28.990868 
    2540   0.91884758   -1310.3365   -935.35583    22555.377    3.0846268    28.254223 
    2550   0.90864962   -1279.6294    -1368.938    23110.799     3.010494    28.484263 
    2560   0.93487125   -1312.9832    -674.8925    22333.921    3.1152129    28.161449 
    2570    0.8855213   -1127.4777   -1629.6382    24438.167    2.8469779    29.019474 
    2580   0.92697427   -1291.3863   -1336.1903    23012.687    3.0233288    28.443898 
    2590   0.95575048   -1314.2514   -478.58566     22180.09    3.1368187    28.096643 
    2600   0.89739679   -1124.8725   -1688.4001    24544.709    2.8346199    29.061585 
    2610   0.93730742   -1265.8196   -1343.9796    23166.357    3.0032741     28.50707 
    2620   0.97725913   -1315.3793   -100.17429     21908.52    3.1757016    27.981501 
    2630   0.96838755   -1313.1645   -638.31767    22305.618    3.1191658    28.149548 
    2640   0.90702088   -1120.7369   -1772.6121    24706.811    2.8160219    29.125422 
    2650   0.96038558   -1305.9331    -1137.847    22752.473    3.0579058    28.336282 
    2660   0.97378969   -1313.0843   -641.33704    22308.683    3.1187373    28.150837 
    2670   0.91229423   -1123.0924   -1723.9326    24613.266    2.8267244    29.088617 
    2680   0.95711439   -1297.6912   -1255.4345    22903.173    3.0377852    28.398706 
    2690   0.97651961   -1313.9416   -501.07776    22199.327    3.1341004    28.104764 
    2700   0.90947215   -1123.1625   -1721.1311    24608.968    2.8272181    29.086924 
    2710   0.95359367   -1300.0906   -1212.0123    22850.805     3.044747    28.377045 
    2720   0.96778121   -1313.4262   -573.50919    22256.302    3.1260773    28.128787 
    2730   0.90446475    -1125.549   -1667.6412    24510.822    2.8385389    29.048204 
    2740   0.94122686   -1289.5025   -1266.8616    22959.609    3.0303182    28.422013 
    2750   0.95688461   -1313.3299   -576.08202    22259.155    3.1256766    28.129989 
    2760   0.89340351   -1125.7322   -1661.7681    24501.346    2.8396367     29.04446 
    2770   0.93021832   -1293.9435   -1225.2217    22897.067    3.0385953    28.396182 
    2780   0.94359706   -1313.4041   -551.39946    22240.719    3.1282675    28.122221 
    2790   0.88097722   -1126.9028   -1632.6624    24450.573    2.8455333    29.024384 
    2800   0.91697125   -1297.2979   -1179.3468    22837.629    3.0465037     28.37159 
    2810   0.92915364   -1313.6427   -495.84617    22198.719    3.1341862    28.104507 
    2820   0.87319606   -1134.7987   -1445.3244    24135.245    2.8827104    28.899072 
    2830   0.87338539   -1142.1254   -1340.4742    23950.367    2.9049626    28.825093 
    2840   0.91808639   -1314.5608   -243.63785    22013.828    3.1605099    28.026263 
    2850   0.89954409   -1309.7264   -854.67087    22496.474    3.0927033    28.229606 
    2860   0.90637763   -1314.2684   -319.46092    22068.892    3.1526241    28.049611 
    2870   0.90050939   -1313.8504    -410.3193    22136.197    3.1430386    28.078097 
    2880   0.87167911   -1275.1859   -1240.3896    23016.632    3.0228106    28.445523 
    2890   0.86657742   -1266.7307   -1252.1782    23075.679    3.0150757    28.469827 
    2900    0.8540233   -1215.5583   -1255.2864    23378.723    2.9759932    28.593913 
    2910   0.88088828   -1313.6529    -417.0998    22142.826    3.1420977    28.080899 
    2920   0.83556721   -1165.0144   -1277.8575    23723.059    2.9327972    28.733612 
    2930   0.85947151   -1307.7173   -879.40634    22528.247    3.0883415     28.24289 
    2940    0.8656721   -1313.9108   -325.65296     22076.51    3.1515362    28.052838 
    2950   0.86172536    -1313.998   -287.46685    22049.276    3.1554289    28.041298 
    2960   0.81065624   -1143.0457   -1388.5277    24006.811    2.8981326     28.84772 
    2970   0.85248749   -1313.9419   -280.88561    22045.319    3.1559952     28.03962 
    2980   0.82036134   -1244.5158   -1243.0665    23196.189    2.9994116    28.519301 
    2990   0.84640805   -1314.0701    -199.1862    21988.159    3.1641994    28.015365 
    3000   0.83027767   -1310.4101   -688.99415    22364.443    3.1109615    28.174271 
    3010   0.80636897   -1231.6774    -1247.719    23276.965    2.9890031    28.552367 
    3020   0.83140881   -1313.4473   -334.44114    22086.609    3.1500952    28.057115 
    3030   0.78390343   -1155.0199   -1341.5501    23867.934    2.9149955    28.791985 
    3040   0.80980536   -1306.1417   -839.36304    22505.761    3.0914271     28.23349 
    3050   0.78936105   -1226.9364   -1248.1412    23306.589    2.9852038    28.564475 
    3060   0.81866308   -1313.7681   -188.73132    21983.823    3.1648235    28.013524 
    3070   0.80234391   -1308.4222   -739.09765    22414.913    3.1039567    28.195449 
    3080   0.79905586   -1308.6217     -721.263    22400.108    3.1060083     28.18924 
    3090   0.79690575   -1309.4229   -676.95506    22361.841    3.1113235    28.173179 
    3100   0.76170728    -1156.591   -1358.6847    23879.804    2.9135465    28.796757 
    3110   0.78384279    -1293.605   -1014.3982    22717.703     3.062586    28.321841 
    3120   0.79052868   -1310.1895    -601.7357    22300.951    3.1198185    28.147584 
    3130   0.75088082   -1148.8799   -1401.8468    23987.004    2.9005256    28.839784 
    3140   0.77150803   -1273.6097   -1140.3812    22937.552    3.0332321    28.412908 
    3150   0.78552974   -1310.5513   -554.77871    22264.312    3.1249526    28.132161 
    3160   0.74787355   -1155.3006   -1377.2942     23912.84    2.9095214    28.810031 
    3170   0.77323497    -1291.969   -1001.4061    22716.254    3.0627814    28.321238 
    3180   0.78504941   -1311.2678   -485.29961    22209.727    3.1326328    28.109152 
    3190   0.74695539   -1153.7025     -1391.77    23942.403    2.9059289    28.821898 
    3200   0.77230852   -1283.7404    -1060.416    22811.812    3.0499515    28.360895 
    3210   0.78707848   -1310.2836   -521.06941    22241.485    3.1281599    28.122543 
    3220   0.75180542   -1156.3212   -1383.9519    23915.434    2.9092058    28.811072 
    3230   0.77750107   -1279.3626   -1078.1016    22851.581    3.0446436    28.377366 
    3240   0.79448087   -1309.6695    -540.6537    22259.618    3.1256116    28.130184 
    3250   0.76126165   -1158.2672    -1376.631     23893.85    2.9118338    28.802402 
    3260    0.7870686   -1274.2486    -1104.067    22903.301    3.0377682    28.398759 
    3270   0.80647475   -1309.0226   -557.52078    22275.921    3.1233241     28.13705 
    3280   0.77503421   -1161.3356   -1369.8265    23865.357    2.9153102    28.790949 
    3290   0.80041696   -1266.4185   -1130.9666     22971.47    3.0287535    28.426906 
    3300   0.82093054   -1306.1854   -660.77732     22368.99    3.1103292    28.176181 
    3310   0.82377919   -1300.0937   -827.11917    22531.366    3.0879139    28.244193 
    3320   0.81821285   -1258.1865   -1159.4609    23044.618    3.0191397    28.457047 
    3330   0.83054851    -1278.816   -1060.2428     22840.48    3.0461234     28.37277 
    3340    0.8528034   -1309.4177   -492.96943    22226.991    3.1301997    28.116433 
    3350   0.82421449   -1179.7167   -1330.9636    23698.569    2.9358279    28.723722 
    3360   0.86426507   -1304.8383    -683.6262    22394.356     3.106806    28.186827 
    3370   0.87576689   -1307.9832   -552.09859    22278.479    3.1229655    28.138126 
    3380   0.84387716   -1161.8123   -1380.5337    23877.223    2.9138614     28.79572 
    3390   0.86767538   -1234.0255   -1220.1792    23243.931     2.993251    28.538854 
    3400   0.87429033   -1220.6515   -1246.4225    23350.455     2.979596    28.582384 
    3410   0.91228723   -1308.0986   -533.82211    22264.814    3.1248821    28.132372 
    3420    0.8811259   -1168.5852   -1360.9328    23808.675    2.9222509    28.768137 
    3430   0.89127839   -1170.9488   -1356.9489    23788.314    2.9247521    28.759934 
    3440   0.90153479   -1173.1884   -1352.2064    23767.983    2.9272539    28.751738 
    3450   0.91325199   -1179.5215   -1331.9408    23702.834    2.9352996    28.725445 
    3460   0.93753761      -1241.9   -1195.7429    23174.845    3.0021742    28.510551 
    3470   0.96313843   -1293.3151   -896.76373    22625.595    3.0750537    28.283512 
    3480   0.96972494    -1283.374   -1002.2767    22767.407    3.0559001     28.34248 
    3490   0.97333671   -1259.6339   -1137.5344     23018.55    3.0225587    28.446313 
    3500   0.97136954   -1206.1703   -1274.3617    23469.843    2.9644391    28.631014 
    3510    0.9696307   -1159.1886   -1394.9689    23914.789    2.9092843    28.810813 
    3520    1.0037325   -1252.9857   -1159.6279    23077.053    3.0148963    28.470392 
    3530   0.99531848    -1175.771   -1340.8252    23738.632    2.9308732    28.739898 
    3540    1.0231225   -1247.3378   -1176.4746    23125.463    3.0085849    28.490286 
    3550    1.0367313   -1261.7292   -1135.1462    23005.081    3.0243284    28.440764 
    3560    1.0674622   -1306.1616   -609.65196    22332.904    3.1153548    28.161021 
    3570    1.0447267   -1218.4166   -1246.2471    23365.498    2.9776776    28.588521 
    3580    1.0669747   -1272.3584   -1082.4221    22898.097    3.0384586    28.396608 
    3590    1.0920364   -1305.7305   -635.16484    22354.559    3.1123369    28.170121 
    3600    1.0800308   -1269.8319   -1096.3542    22924.441     3.034967    28.407493 
    3610    1.0896459    -1282.911   -1011.0439    22777.845    3.0544996    28.346811 
    3620     1.102747   -1300.6557   -779.60296    22492.905     3.093194    28.228113 
    3630    1.0790831   -1226.3659   -1229.1628    23299.802    2.9860735    28.561701 
    3640    1.0756802   -1215.7203   -1253.1681    23388.529    2.9747455     28.59791 
    3650    1.0603814   -1162.5172   -1379.2246    23872.391    2.9144513    28.793777 
    3660    1.0876876    -1269.745   -1103.4587    22930.742     3.034133    28.410096 
    3670    1.0983963   -1300.8239   -791.41199    22500.948    3.0920883    28.231478 
    3680    1.0738907   -1246.6626   -1191.3179     23142.66    3.0063493    28.497347 
    3690    1.0516179   -1175.1525   -1330.6846    23729.508    2.9320001    28.736216 
    3700    1.0635423    -1245.406   -1199.9471    23157.918    3.0043686    28.503608 
    3710     1.053057   -1219.2887   -1244.6517    23356.613    2.9788103    28.584896 
    3720    1.0785231   -1305.7082   -689.87695    22395.394    3.1066621    28.187263 
    3730    1.0797767    -1309.936   -503.74805    22233.043    3.1293476    28.118985 
    3740     1.029081   -1164.4471   -1359.2053    23833.147    2.9192502    28.777991 
    3750    1.0409439   -1218.1953   -1247.0468    23364.672    2.9777829    28.588183 
    3760    1.0683184   -1305.6268   -707.39274    22408.597    3.1048316    28.192801 
    3770    1.0663698   -1305.5761    -713.9329    22413.748    3.1041181    28.194961 
    3780    1.0205966   -1159.7724   -1373.0787    23880.429    2.9134703    28.797008 
    3790    1.0332826   -1204.9002    -1267.188    23466.148    2.9649059    28.629511 
    3800    1.0200691   -1154.4705    -1391.514    23938.828    2.9063628    28.820464 
    3810    1.0540777   -1281.9915   -1075.2702    22835.668    3.0467652    28.370778 
    3820    1.0739742   -1310.5301   -522.58827    22242.198    3.1280595    28.122844 
    3830    1.0238347   -1153.5597   -1388.0362     23939.99    2.9062218     28.82093 
    3840    1.0590856   -1285.8633   -1061.8041     22802.35    3.0512171    28.356973 
    3850    1.0782218   -1310.8706   -512.90372    22232.659    3.1294017    28.118823 
    3860    1.0269172   -1151.8311   -1388.1234    23951.247    2.9048558    28.825447 
    3870    1.0627678   -1289.1076   -1046.7368    22771.201    3.0553909    28.344055 
    3880    1.0806231   -1311.3891   -488.74628    22211.609    3.1323674    28.109946 
    3890    1.0270899    -1150.355   -1390.2187    23963.311    2.9033934    28.830285 
    3900    1.0634998   -1293.2314   -1019.5803    22725.239    3.0615705    28.324972 
    3910    1.0793187   -1311.8705   -459.30979    22187.015    3.1358395    28.099567 
    3920    1.0221276   -1146.5023   -1409.2979    24013.418    2.8973352    28.850366 
    3930    1.0542066   -1283.5901   -1108.4049    22854.143    3.0443024    28.378426 
    3940    1.0692006   -1310.7433   -582.58326    22283.772    3.1222237    28.140355 
    3950    1.0179179   -1156.8051   -1349.1124     23867.23    2.9150815    28.791702 
    3960    1.0530287   -1302.9318   -891.47324    22565.977    3.0831778    28.258648 
    3970    1.0541212   -1309.2205   -677.09333    22363.043    3.1111562    28.173684 
    3980    1.0566287   -1312.9389   -346.47134    22099.023    3.1483257    28.062371 
    3990    1.0491071   -1312.3879   -438.97414    22168.338    3.1384815     28.09168 
    4000   0.99332527   -1153.8673   -1353.5121    23891.685    2.9120976    28.801532 
    4010    1.0267925   -1303.0774   -899.24628    22570.936    3.0825004    28.260718 
    4020    1.0312534   -1311.8491   -522.10542    22231.892    3.1295096      28.1185 
    4030   0.98660361   -1186.9217   -1270.1797    23576.622    2.9510131    28.674368 
    4040   0.96901905   -1144.6083   -1401.0337    24014.195    2.8972415    28.850677 
    4050   0.96491921   -1146.8674   -1384.2799    23977.228    2.9017083    28.835865 
    4060   0.97819983   -1225.1122   -1246.1394    23315.386    2.9840776    28.568068 
    4070    1.0100283    -1313.593   -250.30162    22026.966    3.1586248    28.031837 
    4080   0.99587162   -1310.0158   -681.16708    22361.108    3.1114255    28.172871 
    4090    0.9424136   -1139.8449   -1432.2746    24087.246    2.8884548    28.879902 
    4100   0.99503953    -1313.201   -348.54493    22098.004    3.1484708    28.061939 
    4110   0.98655816   -1311.5638   -571.18225    22269.199    3.1242668    28.134219 
    4120   0.95358941    -1221.102   -1250.7393    23343.581    2.9804733    28.579579 
    4130   0.94157937   -1174.1806   -1278.2509    23666.313    2.9398293    28.710684 
    4140   0.97965596   -1311.8441    -546.2769     22248.88    3.1271201     28.12566 
    4150   0.95036662   -1235.8612   -1245.3547    23249.985    2.9924716    28.541331 
    4160   0.97554008   -1310.8679   -650.10022    22332.342    3.1154332    28.160785 
    4170   0.98367671   -1313.7799   -273.20662    22041.418    3.1565537    28.037967 
    4180   0.96865525   -1304.6828   -917.64366    22576.619    3.0817246    28.263089 
    4190    0.9811588   -1312.6153   -473.83937    22191.018    3.1352739    28.101257 
    4200   0.94313887   -1180.0061   -1270.9544    23619.876     2.945609    28.691893 
    4210   0.98582805   -1313.0502   -439.18172    22163.433    3.1391761    28.089608 
    4220   0.95081051    -1196.037   -1257.8044    23503.741    2.9601637    28.644791 
    4230   0.95679116   -1213.4813   -1249.3551    23387.198    2.9749147    28.597368 
    4240    0.9717572   -1280.7026   -1200.0969    22950.496    3.0315214    28.418252 
    4250   0.98977617   -1309.1977   -780.79276    22442.202    3.1001825    28.206887 
    4260   0.99299176   -1309.2257   -782.19909    22443.102    3.1000581    28.207264 
    4270   0.99771814   -1310.1465   -729.37957    22396.667    3.1064855    28.187797 
    4280   0.99977574   -1309.5826   -767.20259    22429.235    3.1019747    28.201453 
    4290    1.0036318   -1310.1896   -736.84791     22402.17    3.1057224    28.190105 
    4300     1.003769   -1308.5704   -832.64063     22486.53     3.094071    28.225446 
    4310   0.98137421   -1227.6815    -1247.447    23299.036    2.9861717    28.561388 
    4320    1.0216738   -1314.3625   -169.00069    21965.175    3.1675104    28.005601 
    4330    1.0118153   -1311.0353   -694.30909    22364.388    3.1109691    28.174248 
    4340    1.0210941    -1313.951   -335.88582    22083.633    3.1505197    28.055855 
    4350    0.9841537   -1214.6023   -1248.1787    23377.945    2.9760923    28.593596 
    4360   0.99586276   -1280.0434   -1224.3114    22975.652    3.0282023    28.428631 
    4370     1.020568   -1313.5642   -438.83144    22159.431    3.1397431    28.087917 
    4380   0.98066201    -1189.639   -1247.0328    23530.365    2.9568143    28.655603 
    4390   0.98348294   -1209.9739   -1249.3456    23406.894    2.9724115    28.605394 
    4400   0.97359269   -1162.4542   -1268.1933    23728.608    2.9321114    28.735852 
    4410    1.0027557   -1303.7322   -1031.5461     22675.75    3.0682522    28.304396 
    4420    1.0155623   -1313.2113   -514.88631    22216.656    3.1316558    28.112075 
    4430     0.960736   -1136.2462   -1431.8106    24109.078    2.8858391    28.888625 
    4440    1.0021121   -1306.8649   -959.15626    22597.998    3.0788091    28.272008 
    4450    0.9874826   -1274.3812   -1254.2186    23034.595    3.0204534    28.452921 
    4460   0.97956007   -1240.5832   -1259.7451    23233.719    2.9945667    28.534674 
    4470    0.9870914   -1292.2383   -1187.2863    22873.617    3.0417105    28.386485 
    4480    1.0064752   -1313.6755   -450.23969    22166.196    3.1387848    28.090775 
    4490   0.96171363   -1165.6768    -1244.596    23679.385    2.9382064    28.715969 
    4500   0.98529509   -1299.3223   -1125.9097    22780.256    3.0541763    28.347812 
    4510    1.0025054   -1313.8108   -436.30355    22155.112    3.1403552    28.086092 
    4520    0.9613009    -1184.495    -1233.713    23546.514    2.9547864    28.662157 
    4530   0.93684321   -1128.0483   -1602.8492    24400.564    2.8513653    29.004583 
    4540    0.9819439   -1304.1143   -1066.5525     22702.75    3.0646032    28.315625 
    4550    0.9993331   -1314.3228   -332.37966    22077.507    3.1513939     28.05326 
    4560   0.99796004   -1314.3671   -323.25455    22070.732    3.1523612    28.050391 
    4570   0.99303492    -1313.716   -470.23586    22179.902    3.1368453    28.096564 
    4580    0.9423229   -1141.7251   -1341.5415    23954.503    2.9044611    28.826753 
    4590   0.93092092   -1129.6281   -1565.9884    24336.201    2.8589064    28.979058 
    4600   0.97601667   -1306.8623   -1006.6182    22636.661    3.0735505    28.288122 
    4610   0.98211735   -1311.8423   -723.77314    22381.015    3.1086579    28.181229 
    4620   0.96365265   -1289.7223   -1241.6051    22936.093    3.0334251    28.412306 
    4630    0.9816427   -1313.0947   -576.69135    22261.723     3.125316    28.131071 
    4640   0.92281474   -1128.8834   -1584.7184    24367.601    2.8552224    28.991516 
    4650   0.96010711   -1291.3702   -1232.9685    22918.861    3.0357059    28.405188 
    4660   0.97766754   -1313.1212   -580.16151     22264.06     3.124988    28.132055 
    4670   0.91938385   -1128.8971   -1584.9037    24367.567    2.8552264    28.991503 
    4680   0.95612893   -1289.3601   -1249.1404    22944.771    3.0322778    28.415889 
    4690   0.97451479   -1313.0875   -588.12197     22270.11    3.1241391    28.134603 
    4700   0.91691239   -1128.8531   -1585.6921    24368.862    2.8550746    28.992016 
    4710   0.95353647   -1288.1626   -1260.7852    22962.161    3.0299814    28.423066 
    4720   0.97259516   -1313.0283   -599.04875    22278.576    3.1229519    28.138167 
    4730   0.91555963    -1128.567    -1592.493    24380.502    2.8537115    28.996631 
    4740   0.95294482   -1288.1221   -1261.8331    22963.283    3.0298333    28.423529 
    4750   0.97264026   -1313.0467   -598.17803    22277.759    3.1230664    28.137823 
    4760   0.91613454   -1128.5593   -1592.9483    24381.131    2.8536379    28.996881 
    4770   0.95456705   -1289.4262   -1255.3974    22950.005    3.0315863    28.418049 
    4780    0.9747134   -1313.0886   -593.45176    22273.934    3.1236027    28.136213 
    4790   0.91882116    -1128.751   -1588.3166    24373.112    2.8545768    28.993701 
    4800   0.95694352   -1286.6582    -1271.378    22980.297    3.0275901    28.430547 
    4810   0.97827917    -1312.992   -608.26779     22285.63    3.1219633    28.141137 
    4820   0.92251976   -1128.2462    -1601.082    24394.968    2.8520193    29.002365 
    4830   0.96245916   -1288.7565   -1263.4422    22961.216    3.0301061    28.422676 
    4840   0.98395885    -1313.032   -606.90834    22284.414    3.1221338    28.140625 
    4850   0.92859465   -1128.5347   -1593.9818    24382.747    2.8534488    28.997522 
    4860   0.96809324   -1286.3847   -1279.6753    22989.687    3.0263535    28.434419 
    4870   0.99070825   -1312.9967   -612.36941    22288.759    3.1215251    28.142454 
    4880   0.93528978   -1128.5379   -1593.9574    24382.723    2.8534516    28.997512 
    4890   0.97502688   -1285.6578   -1280.3271    22994.375    3.0257365    28.436351 
    4900   0.99759073   -1312.8666   -627.08022    22300.632    3.1198631     28.14745 
    4910   0.94112027   -1127.7163     -1614.27    24417.866    2.8493449    29.011436 
    4920   0.98649381   -1299.8626   -1188.0711    22831.566    3.0473126    28.369079 
    4930    1.0045347   -1312.9863     -610.658    22287.569    3.1216917    28.141953 
    4940   0.94823239   -1128.9981    -1582.374     24363.03    2.8557581    28.989703 
    4950   0.98614859    -1281.786   -1291.4652    23026.694    3.0214898    28.449668 
    4960    1.0083664   -1312.7073   -641.68822    22312.653    3.1181824    28.152507 
    4970   0.95180568   -1129.1074   -1579.5712    24358.323      2.85631    28.987836 
    4980   0.98984414   -1286.4281   -1279.0359    22988.995    3.0264446    28.434133 
    4990    1.0106051   -1312.9117   -613.74681    22290.346    3.1213029    28.143122 
    5000   0.95171228   -1128.6435   -1591.2908    24378.349    2.8539636    28.995778 
    5010   0.98926547   -1287.0705   -1275.8064     22982.41    3.0273117    28.431418 
    5020    1.0088689   -1313.0067   -599.90815    22279.401    3.1228363    28.138515 
    5030   0.94992245   -1129.8472   -1560.3243    24326.007    2.8601044    28.975011 
    5040   0.98300221   -1279.4404    -1295.118    23043.489    3.0192875    28.456583 
    5050    1.0025406   -1312.8154   -618.99883    22294.868    3.1206697    28.145025 
    5060   0.94165096   -1128.3553   -1598.3355    24390.557    2.8525351    29.000617 
    5070   0.97986552   -1295.8896   -1216.4086    22878.891    3.0410093    28.388666 
    5080   0.99455188   -1313.1088   -583.39699    22266.468    3.1246501    28.133069 
    5090   0.93597813    -1131.332   -1520.8569    24260.829    2.8677883     28.94911 
    5100   0.96771845   -1289.6632   -1259.2929     22952.64    3.0312383    28.419137 
    5110   0.98440341   -1313.2708   -561.26868    22249.053    3.1270958    28.125733 
    5120   0.92504346   -1130.8052   -1535.0639    24284.148    2.8650344    28.958382 
    5130   0.95548881   -1282.9738   -1275.1184     23004.67    3.0243824    28.440594 
    5140   0.97208606   -1312.8315   -619.91642    22295.616    3.1205651    28.145339 
    5150    0.9131372    -1129.102   -1578.8401    24357.578    2.8563973     28.98754 
    5160   0.94870903   -1294.5256   -1220.3034    22889.987    3.0395351    28.393255 
    5170   0.96360653   -1313.1206   -575.84385    22260.855     3.125438    28.130705 
    5180   0.90625172    -1130.277   -1547.7402    24305.637    2.8625014    28.966921 
    5190   0.93856658   -1285.5424   -1265.1346    22981.086    3.0274862    28.430872 
    5200   0.95621301   -1312.8873   -603.09469    22282.694    3.1223747    28.139901 
    5210   0.90049722   -1129.8339    -1558.914     24324.52    2.8602793    28.974421 
    5220   0.93575463   -1290.4481   -1236.3878    22927.268    3.0345927    28.408661 
    5230    0.9535636    -1313.028   -582.28616    22266.387    3.1246614    28.133035 
    5240   0.89906741   -1130.2154   -1548.0983    24306.895    2.8623533    28.967421 
    5250   0.93494507   -1290.1362   -1231.5849    22924.682     3.034935    28.407593 
    5260   0.95363546   -1312.9948   -578.19853    22263.628    3.1250487    28.131873 
    5270   0.90016318   -1130.7262    -1535.035    24285.372    2.8648901    28.958868 
    5280   0.93645558   -1291.8114    -1211.445    22897.154    3.0385837    28.396218 
    5290   0.95451589   -1313.0723   -559.77213    22249.595    3.1270196    28.125961 
    5300   0.90064175   -1131.5786   -1514.4882    24251.351    2.8689091    28.945339 
    5310   0.93595508   -1294.6974   -1181.2105    22854.186    3.0442966    28.378444 
    5320   0.95150933   -1313.2046   -538.59612    22233.362    3.1293028    28.119119 
    5330   0.89704117    -1133.431   -1472.4843    24181.789    2.8771619    28.917637 
    5340   0.93215574   -1302.5473   -1058.5896    22704.235    3.0644028    28.316243 
    5350    0.9436684   -1313.8315    -425.3883    22147.216    3.1414748    28.082755 
    5360   0.89485281   -1154.4612    -1280.319     23794.78    2.9239573     28.76254 
    5370   0.92206118   -1307.5924    -910.7537    22553.659    3.0848618    28.253505 
    5380   0.92684389   -1313.5416   -465.09386    22177.937    3.1371232    28.095734 
    5390   0.87740743    -1152.764   -1295.5845    23824.659    2.9202903    28.774573 
    5400   0.90228488   -1305.6944    -958.7724     22603.62    3.0780433    28.274352 
    5410   0.90826934   -1313.7445   -412.72737    22139.132    3.1426218    28.079338 
    5420   0.85132476    -1136.128   -1434.4174     24113.52    2.8853075    28.890399 
    5430   0.88027322   -1302.4949   -1014.8832     22667.94    3.0693094    28.301146 
    5440   0.88633239   -1313.3944   -462.84338    22177.767    3.1371473    28.095662 
    5450   0.83720302   -1150.9857   -1315.3948    23861.333    2.9158019    28.789331 
    5460   0.86029871     -1303.29   -979.83283    22634.441    3.0738519    28.287198 
    5470   0.86564349    -1313.412   -442.02771    22162.879    3.1392547    28.089374 
    5480   0.81363437   -1140.7649   -1390.9624    24025.816    2.8958401     28.85533 
    5490   0.83746008   -1297.4019   -1064.5506    22738.223    3.0598223    28.330365 
    5500   0.84464847   -1313.0076   -478.74681    22192.183    3.1351093    28.101748 
    5510   0.79623141   -1145.1981   -1365.2842    23963.143    2.9034138    28.830218 
    5520   0.81882943   -1297.0906   -1050.0126     22727.64     3.061247    28.325969 
    5530   0.82612839   -1312.8186   -482.88587    22196.604     3.134485    28.103614 
    5540   0.77932758   -1144.9074   -1374.0265    23976.609    2.9017832    28.835617 
    5550   0.80215738   -1295.4279   -1060.2557    22745.785    3.0588049    28.333506 
    5560   0.81044286   -1312.5291   -496.14437    22208.258    3.1328401    28.108532 
    5570   0.76584023   -1145.4736   -1377.8677     23978.03    2.9016112    28.836187 
    5580   0.78886856   -1292.6014   -1076.5599    22775.478    3.0548172    28.345829 
    5590   0.79876426   -1312.2003   -507.35149    22218.609    3.1313806    28.112898 
    5600    0.7567999   -1147.2424   -1371.8601    23958.845    2.9039347    28.828494 
    5610    0.7801215   -1290.5339   -1081.5728    22791.345    3.0526904     28.35241 
    5620   0.79148033   -1311.7074   -516.41742    22228.138    3.1300382    28.116917 
    5630   0.75162051   -1148.1578   -1371.7054    23952.903     2.904655    28.826111 
    5640   0.77557504   -1287.7234   -1091.3312    22815.448    3.0494655    28.362401 
    5650   0.78865933   -1311.2249   -532.70206    22243.056     3.127939    28.123205 
    5660   0.75100174   -1149.4581   -1370.1575    23942.586    2.9059067    28.821971 
    5670   0.77557811   -1284.6489   -1107.4302    22846.831    3.0452766      28.3754 
    5680   0.79072517   -1310.8304   -543.21228    22253.283    3.1265013    28.127515 
    5690   0.75499522   -1151.0329   -1368.0837    23929.749    2.9074655     28.81682 
    5700   0.78027467    -1280.877   -1121.2438    22880.129    3.0408447    28.389178 
    5710   0.79747477   -1310.2857   -565.68818    22273.264    3.1236967    28.135931 
    5720   0.76408345   -1153.7975   -1362.3096    23904.247    2.9105673    28.806579 
    5730   0.78958859   -1275.1885   -1142.5416    22931.026    3.0340954    28.410213 
    5740   0.80967349   -1310.0256   -572.17729    22279.885    3.1227684    28.138718 
    5750   0.77771797   -1155.2111   -1359.0416    23891.162    2.9121614    28.801322 
    5760   0.80444148   -1273.2501   -1150.7876    22949.788    3.0316149     28.41796 
    5770   0.82652131   -1309.6849    -587.6083    22293.671    3.1208374    28.144521 
    5780   0.79642915    -1158.559   -1350.5471    23858.628    2.9161325    28.788243 
    5790   0.82146123    -1257.757   -1199.2686    23082.389    3.0141992    28.472586 
    5800   0.82770574   -1246.8332   -1223.7992    23168.913    3.0029428    28.508118 
    5810   0.82811494   -1199.7946   -1270.9956    23499.994    2.9606357    28.643269 
    5820   0.82664435   -1153.6643   -1374.4936    23921.879     2.908422     28.81366 
    5830   0.85819013    -1270.223   -1155.4056     22971.81    3.0287087    28.427046 
    5840   0.88285092   -1306.9428   -691.18118    22387.545    3.1077512    28.183969 
    5850   0.89181367   -1305.4246   -742.26795    22435.264    3.1011412     28.20398 
    5860   0.88490934   -1253.4131   -1207.5703    23116.125    3.0098003    28.486451 
    5870   0.91155612   -1302.4147   -814.31089    22508.054    3.0911121    28.234449 
    5880   0.91434528    -1285.357   -1059.4927     22803.41    3.0510753    28.357412 
    5890   0.93867639   -1308.5801   -612.46148     22319.37    3.1172439    28.155331 
    5900   0.91502114   -1184.4129   -1290.1998    23619.688    2.9456325    28.691817 
    5910   0.95639135   -1302.0936   -824.41857    22518.271    3.0897098     28.23872 
    5920   0.95424313   -1265.2604   -1168.7763    23012.863    3.0233057     28.44397 
    5930   0.98234803   -1304.9591    -746.1721    22441.397    3.1002936     28.20655 
    5940   0.96737493   -1216.7246   -1254.3574    23379.749    2.9758626    28.594331 
    5950   0.96242884   -1150.8881   -1394.3671    23967.201    2.9029223    28.831845 
    5960   0.99742989   -1254.9516   -1201.8785    23102.757    3.0115419    28.480959 
    5970   0.98987606   -1170.5053   -1323.0473    23748.367    2.9296718    28.743826 
    5980   0.99764091   -1161.8029   -1344.5711    23831.902    2.9194027    28.777489 
    5990    1.0308816   -1264.3591    -1168.315    23017.796    3.0226578    28.446003 
    6000    1.0555315   -1302.7008   -819.13607    22511.427    3.0906491    28.235859 
    6010    1.0493179   -1268.0697   -1148.5481     22978.64    3.0278085    28.429863 
    6020    1.0744781   -1306.3344   -710.69139    22406.952    3.1050595    28.192111 
    6030    1.0845844   -1309.4352   -566.85605    22281.188    3.1225857    28.139267 
    6040    1.0420814   -1163.6946   -1337.9779    23811.319    2.9219264    28.769202 
    6050     1.055765   -1205.4446   -1261.7341    23456.677     2.966103    28.625659 
    6060    1.0479032   -1167.8174   -1326.6175    23770.277    2.9269714    28.752663 
    6070    1.0469714   -1164.8971   -1333.8206    23798.156    2.9235424      28.7639 
    6080    1.0562076   -1208.8718   -1259.0949    23432.558     2.969156    28.615844 
    6090    1.0429541   -1168.2155   -1325.1619    23765.667    2.9275391    28.750805 
    6100    1.0376159   -1165.2876   -1332.7376    23793.968    2.9240571    28.762213 
    6110    1.0399225   -1195.5814   -1274.6454    23531.529    2.9566681    28.656076 
    6120    1.0249094    -1160.787   -1346.2297    23839.999    2.9184112    28.780748 
    6130     1.037545   -1242.2878   -1224.6462    23197.081    2.9992963    28.519667 
    6140    1.0386077   -1271.8281   -1139.7173    22948.767    3.0317498    28.417538 
    6150     1.050891   -1308.5809   -660.92337    22356.305    3.1120939    28.170854 
    6160    1.0356809   -1296.7711   -970.92437    22666.468    3.0695086    28.300533 
    6170    1.0284709    -1291.502   -1027.0513    22741.953    3.0593204    28.331914 
    6180    1.0385583   -1310.1806   -582.68531    22288.301    3.1215892    28.142261 
    6190   0.99267081   -1170.1317   -1311.7589    23735.883    2.9312126    28.738789 
    6200   0.99456099   -1191.7609   -1271.7809    23551.021    2.9542209    28.663986 
    6210   0.98569634   -1163.6844   -1328.9019    23798.431    2.9235086    28.764011 
    6220    1.0065242   -1264.3703   -1177.3325    23024.011    3.0218418    28.448563 
    6230    1.0268465   -1309.9324   -621.59846      22318.4    3.1173794    28.154924 
    6240   0.98636528   -1175.7713   -1298.8595    23683.172    2.9377366    28.717499 
    6250    1.0276891   -1311.1284   -554.11777      22261.2    3.1253894     28.13085 
    6260   0.97984487   -1150.8036   -1375.0122    23940.842    2.9061183    28.821272 
    6270    1.0097322   -1276.5497   -1143.1903    22924.126    3.0350087    28.407363 
    6280    1.0299347   -1310.9538   -587.29521    22286.635    3.1218226     28.14156 
    6290   0.98378076   -1153.0716   -1361.1987    23907.695    2.9101476    28.807964 
    6300    1.0141005   -1281.5518   -1134.1339    22888.204    3.0397719    28.392518 
    6310    1.0342834    -1311.512    -556.0565    22259.917    3.1255696     28.13031 
    6320   0.98581953   -1149.0795   -1378.0279    23955.404    2.9043517    28.827114 
    6330    1.0174682   -1283.0694   -1134.8665     22880.19    3.0408367    28.389203 
    6340    1.0371479   -1311.7717   -550.21731    22253.848     3.126422    28.127753 
    6350    0.9869638   -1146.6794    -1388.538    23984.666    2.9008083    28.838847 
    6360    1.0192133   -1285.2836   -1130.8912    22864.186    3.0429651    28.382583 
    6370     1.037658   -1312.0338   -547.55225     22250.19    3.1269361    28.126212 
    6380   0.98602233   -1145.5733   -1395.6162    24000.768    2.8988623    28.845299 
    6390    1.0179003   -1286.3978   -1134.6024    22861.131    3.0433717    28.381319 
    6400    1.0354934   -1312.1356   -545.36006    22247.652    3.1272928    28.125142 
    6410   0.98248675     -1143.67   -1404.1195    24024.412    2.8960093    28.854768 
    6420    1.0147227   -1289.0417    -1130.455    22842.821    3.0458112     28.37374 
    6430    1.0310872   -1312.2432   -541.44409    22243.833    3.1278296    28.123533 
    6440   0.97694911   -1142.1904   -1413.4635    24046.305    2.8933726    28.863531 
    6450    1.0089265   -1289.5578   -1137.4739    22846.039    3.0453822    28.375072 
    6460    1.0249837   -1312.3965   -537.56527    22239.878    3.1283858    28.121866 
    6470   0.97066001   -1141.3311   -1412.6897    24051.047    2.8928022    28.865428 
    6480    1.0027864   -1291.2441   -1130.5647    22830.472    3.0474587    28.368626 
    6490    1.0182139   -1312.4631   -534.66327     22237.09     3.128778    28.120691 
    6500    0.9635961    -1140.079   -1421.7101    24071.145    2.8903869    28.873466 
    6510   0.99598436   -1291.8046    -1137.915    22833.817    3.0470123    28.370011 
    6520    1.0115166   -1312.5676   -537.45651    22238.433    3.1285891    28.121257 
    6530   0.95727149   -1139.4968   -1423.8989    24077.806    2.8895872    28.876129 
    6540    0.9902425   -1292.8789   -1130.2056    22820.887    3.0487386    28.364655 
    6550    1.0058839   -1312.6998   -526.84988    22229.642    3.1298264    28.117551 
    6560   0.95217195   -1139.2188    -1419.109    24073.378    2.8901187    28.874358 
    6570    0.9856948   -1294.2819   -1123.5748    22807.257    3.0505606    28.359007 
    6580    1.0014279   -1312.8056    -524.4653    22227.153    3.1301768    28.116502 
    6590   0.94824393   -1138.6723   -1420.0925    24078.294    2.8895286    28.876324 
    6600   0.98251871    -1295.221   -1118.9157    22797.901    3.0518126    28.355129 
    6610   0.99864073   -1312.9671   -516.66959    22220.392    3.1311293     28.11365 
    6620   0.94602987    -1138.754   -1415.6989    24071.839    2.8903035    28.873743 
    6630   0.98056915   -1295.8868    -1121.123    22796.144    3.0520478      28.3544 
    6640    0.9968629   -1312.9769   -525.81222     22226.97    3.1302026    28.116424 
    6650   0.94404987   -1137.0344   -1433.6487    24107.058    2.8860809    28.887818 
    6660   0.97941775   -1295.1565   -1138.0436     22814.95    3.0495321    28.362195 
    6670   0.99651946   -1312.9793   -535.89253    22234.304    3.1291701    28.119517 
    6680   0.94388696     -1136.42   -1443.8015    24124.443    2.8840011     28.89476 
    6690   0.97950771   -1293.8645    -1152.647    22834.766    3.0468856    28.370404 
    6700     0.997416   -1312.9711   -539.15568    22236.592    3.1288481    28.120481 
    6710    0.9448075   -1136.0063   -1447.6348    24132.212    2.8830727    28.897862 
    6720   0.98068303   -1293.6954    -1157.946    22840.256    3.0461533    28.372677 
    6730    0.9987242   -1312.9387   -546.22736    22241.851    3.1281084    28.122697 
    6740   0.94621595   -1135.6206   -1447.8902    24135.125    2.8827247    28.899024 
    6750   0.98231865   -1294.2434   -1159.1293    22838.196     3.046428    28.371825 
    6760    1.0004479   -1312.9769   -541.79741    22238.155    3.1286282     28.12114 
    6770   0.94740364   -1134.9811   -1454.1048    24147.674    2.8812266    28.904032 
    6780   0.98371312    -1294.326   -1163.8937    22841.859    3.0459395    28.373341 
    6790    1.0017094   -1312.9727   -548.18271    22242.767    3.1279795    28.123084 
    6800   0.94808724   -1134.2325   -1463.5214    24165.273    2.8791283    28.911052 
    6810   0.98413207   -1293.2638   -1178.5674    22860.662    3.0434342    28.381125 
    6820    1.0021956   -1312.9175    -558.3019    22250.425     3.126903    28.126311 
    6830   0.94819586   -1133.8255   -1470.4322    24177.132     2.877716    28.915781 
    6840   0.98387055   -1292.5568   -1189.5813    22874.301    3.0416195    28.386768 
    6850    1.0018067   -1312.9404   -567.79095    22257.267    3.1259418    28.129193 
    6860   0.94706798   -1133.0082   -1483.2689    24199.925    2.8750056    28.924865 
    6870   0.98240047   -1291.5007   -1204.6003    22893.566      3.03906    28.394735 
    6880    1.0003702   -1312.9532   -574.57302    22262.123    3.1252599    28.131239 
    6890   0.94528889   -1132.6776   -1488.5586    24209.173    2.8739074    28.928549 
    6900   0.98021061   -1290.6117   -1211.4188    22904.451    3.0376158    28.399234 
    6910   0.99805782   -1312.9674   -580.75075    22266.525    3.1246421    28.133093 
    6920   0.94289099   -1132.4861   -1490.6102    24213.091    2.8734424    28.930109 
    6930   0.97735852   -1290.2135   -1219.4542    22913.831    3.0363722     28.40311 
    6940   0.99511031   -1312.9537   -586.86444     22271.02    3.1240115    28.134986 
    6950   0.93972962   -1132.1401   -1497.8708     24225.14    2.8720131    28.934908 
    6960   0.97385802   -1289.4418   -1228.3484    22926.084    3.0347494    28.408172 
    6970   0.99164826   -1312.9544   -590.38309    22273.495    3.1236643    28.136028 
    6980   0.93638441   -1132.1217   -1498.1843    24225.479    2.8719729    28.935043 
    6990   0.96960675   -1287.4917   -1241.6298     22948.96    3.0317244    28.417618 
    7000   0.98750799   -1312.8794   -604.28239    22284.229    3.1221596    28.140547 
    7010   0.93233792   -1131.8827   -1505.5087    24236.892    2.8706205    28.939586 
    7020   0.96523538   -1286.8841   -1251.2604     22961.16    3.0301135    28.422653 
    7030   0.98311254   -1312.8698   -611.78475    22289.835    3.1213744    28.142907 
    7040   0.92790174     -1131.61    -1513.609    24249.668    2.8691082     28.94467 
    7050   0.96057088   -1286.0034   -1260.5693    22974.635    3.0283363    28.428212 
    7060    0.9786164    -1312.821   -616.97188    22293.887    3.1208071    28.144612 
    7070   0.92366989   -1131.4713   -1516.1664    24254.015    2.8685939    28.946399 
    7080   0.95604532   -1285.3645   -1267.0311    22984.156    3.0270818    28.432138 
    7090   0.97426723   -1312.8705   -618.55648    22294.766    3.1206841    28.144982 
    7100   0.91971257   -1131.5509   -1514.9867    24251.714    2.8688661    28.945484 
    7110   0.95218404   -1285.9151   -1262.8013     22977.02    3.0280219    28.429195 
    7120   0.97034546   -1312.8991   -615.28945    22292.069    3.1210616    28.143847 
    7130   0.91641894   -1131.8497   -1507.5242    24239.347    2.8703299    28.940563 
    7140   0.94811833   -1283.1065   -1269.2381    22998.648    3.0251744    28.438113 
    7150   0.96683638   -1312.7736   -628.99586      22303.1    3.1195179    28.148488 
    7160   0.91311925   -1131.1615   -1525.0136    24268.124    2.8669262    28.952011 
    7170   0.94947545   -1295.9052   -1207.6607    22871.175    3.0420353    28.385474 
    7180   0.96703086   -1313.3235   -551.54078    22241.825     3.128112    28.122687 
    7190   0.91402264   -1132.7773   -1484.0925    24201.107    2.8748652    28.925336 
    7200   0.94555922   -1281.0324   -1272.6827    23013.529    3.0232183    28.444245 
    7210    0.9658594   -1312.6091   -645.38279    22316.518    3.1176422    28.154132 
    7220   0.91617611   -1132.9933   -1479.1581    24193.047     2.875823    28.922124 
    7230    0.9485882   -1279.0179   -1267.4853     23019.92     3.022379    28.446877 
    7240   0.97121383   -1312.9013   -606.79637    22285.738    3.1219482    28.141182 
    7250   0.92109697   -1132.4896      -1491.6    24213.495    2.8733943    28.930271 
    7260   0.95584428   -1281.7576    -1264.196     23001.67    3.0247769    28.439358 
    7270   0.97851778   -1312.7099    -630.1587    22304.643    3.1193022    28.149137 
    7280   0.92887577   -1132.3526   -1495.7274    24220.251    2.8725928    28.932961 
    7290   0.96557756   -1287.0479   -1244.4104    22953.947    3.0310657    28.419676 
    7300   0.98733238   -1312.8658   -604.59442    22284.609    3.1221063    28.140707 
    7310   0.93581424   -1132.4413   -1494.9054    24218.765    2.8727691    28.932369 
    7320   0.97147475   -1287.7481   -1236.6727    22943.118    3.0324962    28.415206 
    7330   0.99112333   -1312.8936    -595.6744    22277.947      3.12304    28.137903 
    7340   0.93744288   -1133.0686   -1480.8811    24195.729    2.8755042    28.923193 
    7350   0.97039577   -1288.7443   -1225.7588    22927.776    3.0345254    28.408871 
    7360   0.98715565   -1312.8545   -588.21369    22272.735    3.1237709    28.135708 
    7370   0.93132195   -1133.2365   -1478.3523    24191.447    2.8760132    28.921487 
    7380   0.96187489   -1288.7331   -1221.8975    22924.543    3.0349534    28.407536 
    7390   0.97651743    -1312.788   -587.98745     22273.15    3.1237126    28.135883 
    7400   0.92023136   -1133.6071   -1471.4873    24179.945    2.8773812    28.916902 
    7410   0.94944115   -1289.2404   -1213.3396    22914.141    3.0363311    28.403239 
    7420    0.9632115   -1312.7691   -580.51582    22267.858     3.124455    28.133654 
    7430    0.9077611   -1134.1129   -1463.9888    24166.656    2.8789635    28.911604 
    7440   0.93675036    -1289.669   -1205.9593    22905.283    3.0375054    28.399578 
    7450   0.95085581   -1312.7385   -574.80565    22263.955    3.1250028     28.13201 
    7460   0.89733561    -1134.653   -1453.6337    24149.417    2.8810187    28.904728 
    7470    0.9273347   -1291.0005   -1190.3731    22884.012    3.0403288    28.390784 
    7480   0.94229874   -1312.7129   -568.68429    22259.706    3.1255992    28.130221 
    7490   0.89101207   -1135.1246   -1446.1995    24136.549    2.8825545    28.899593 
    7500   0.92247085   -1291.3694   -1181.4904    22874.143    3.0416405    28.386703 
    7510   0.93905775   -1312.7232   -561.58869    22254.539    3.1263249    28.128044 
    7520   0.88977266   -1135.6797   -1441.6198    24126.807    2.8837186    28.895704 
    7530   0.92254383   -1290.5933   -1182.5116     22879.48     3.040931     28.38891 
    7540   0.94095113    -1312.711   -562.75893    22255.674    3.1261655    28.128522 
    7550   0.89365215   -1136.7136   -1430.3165    24104.886    2.8863409     28.88695 
    7560   0.92779179   -1291.3525   -1171.8226    22865.805    3.0427496    28.383253 
    7570   0.94737824   -1312.6791   -556.07783    22250.939    3.1268308    28.126527 
    7580   0.90099597   -1136.9863   -1425.7082    24097.139    2.8872689    28.883855 
    7590    0.9366854   -1291.9036   -1162.3001    22854.313    3.0442796    28.378497 
    7600   0.95747316   -1312.7475   -546.58749    22243.599    3.1278625    28.123434 
    7610   0.91198236   -1137.7906   -1411.5907    24073.348    2.8901223    28.874346 
    7620   0.94908908   -1293.4525    -1144.854    22830.337    3.0474767     28.36857 
    7630   0.97045269   -1312.8164   -541.99326    22239.904    3.1283822    28.121877 
    7640   0.92500943   -1137.9171   -1412.8563    24074.136    2.8900277    28.874662 
    7650   0.96292022   -1292.1644   -1153.6593    22845.212    3.0454924     28.37473 
    7660   0.98533224   -1312.7039   -551.05922    22247.256    3.1273484    28.124975 
    7670   0.93973566   -1138.0478   -1413.1913    24073.664    2.8900844    28.874473 
    7680   0.97820784   -1291.3552   -1155.0685    22850.827     3.044744    28.377054 
    7690    1.0011368   -1312.7454   -548.42864    22245.088    3.1276532    28.124062 
    7700   0.95468294   -1138.3317   -1409.6044    24067.047     2.890879    28.871827 
    7710   0.99340298   -1292.3652   -1149.6732    22840.526    3.0461172    28.372789 
    7720    1.0156853    -1312.772   -548.71489    22245.155    3.1276438     28.12409 
    7730   0.96786669   -1138.4967   -1407.1461    24062.699    2.8914013    28.870089 
    7740    1.0060743    -1292.781   -1146.0952    22835.033      3.04685    28.370515 
    7750     1.027191   -1312.7713   -545.60314     22242.77    3.1279791    28.123085 
    7760   0.97723106   -1138.3835   -1407.2194    24063.544    2.8912998    28.870426 
    7770    1.0138433   -1292.3248   -1152.8702     22843.53    3.0457167    28.374033 
    7780    1.0333803   -1312.7173   -547.14305    22244.103    3.1277917    28.123646 
    7790   0.98113081   -1138.3219   -1405.6589     24061.91    2.8914962    28.869773 
    7800    1.0157629   -1292.8194   -1146.3792    22834.936     3.046863    28.370474 
    7810    1.0325882   -1312.7463   -543.61348    22241.234    3.1281951    28.122438 
    7820   0.97789322   -1138.6412   -1402.9577    24056.084    2.8921965    28.867442 
    7830    1.0092511   -1292.1053   -1149.3138    22841.295    3.0460147    28.373108 
    7840    1.0230682   -1312.6901   -549.52082    22245.829    3.1275489    28.124374 
    7850   0.96594093   -1138.5476   -1409.0295    24064.368    2.8912008    28.870756 
    7860   0.99386221   -1291.2194    -1159.201    22854.886    3.0442033    28.378734 
    7870    1.0049708   -1312.7024   -556.31493    22250.781    3.1268529    28.126461 
    7880    0.9465589   -1138.3703   -1413.1002    24070.705    2.8904397     28.87329 
    7890   0.97192978   -1290.3064   -1165.6875    22865.576    3.0427801    28.383158 
    7900   0.98175855   -1312.6707   -561.50964    22254.746    3.1262959    28.128131 
    7910   0.92439251   -1138.7701   -1411.5085    24065.695    2.8910414    28.871286 
    7920   0.94884061   -1289.0769   -1171.4219    22877.339    3.0412155    28.388025 
    7930   0.95943962   -1312.5617   -566.14867     22258.68    3.1257433    28.129789 
    7940   0.90495029   -1139.3498   -1407.6889    24056.614    2.8921327    28.867655 
    7950   0.93046425    -1289.231   -1165.6582    22871.205    3.0420312    28.385487 
    7960   0.94261972   -1312.5186   -563.73861    22257.047    3.1259727      28.1291 
    7970   0.89117408   -1139.7793   -1402.9153    24047.481    2.8932311    28.864001 
    7980   0.91806004   -1289.3458    -1163.476    22868.626    3.0423743     28.38442 
    7990   0.93188684   -1312.5137   -562.29766    22256.035    3.1261148    28.128674 
    8000   0.88269499   -1140.0837   -1402.0045    24044.241     2.893621    28.862704 
    8010   0.91056051   -1288.3113    -1169.578    22879.873    3.0408787    28.389073 
    8020   0.92585152   -1312.3401   -573.69432    22265.562    3.1247772    28.132687 
    8030   0.87836657   -1140.3621   -1409.2243    24051.606     2.892735    28.865651 
    8040   0.90674521   -1285.8951   -1182.8726    22905.336    3.0374983      28.3996 
    8050   0.92327389    -1312.249   -582.55929    22272.895    3.1237484    28.135776 
    8060   0.87690782   -1141.5296   -1402.1535    24034.594    2.8947824    28.858844 
    8070   0.90437538   -1284.6144   -1181.8445    22911.603    3.0366675     28.40219 
    8080   0.92005599   -1312.2403   -577.60162    22269.454    3.1242311    28.134326 
    8090   0.87222826    -1142.494   -1394.7869    24018.798    2.8966862     28.85252 
    8100   0.89662098   -1284.5767   -1177.5042     22908.13    3.0371278    28.400755 
    8110   0.90904404   -1312.0778   -578.93612    22271.539    3.1239386    28.135205 
    8120   0.85954292   -1143.5471   -1386.9929    24001.962     2.898718    28.845777 
    8130   0.88078175   -1283.2037   -1174.7812    22913.443    3.0364236     28.40295 
    8140    0.8916065   -1311.9319   -580.42406     22273.71    3.1236342    28.136119 
    8150   0.84283894   -1144.7474   -1380.7368     23986.14    2.9006301    28.839438 
    8160   0.86316056   -1281.5453   -1177.2619    22925.178    3.0348694    28.407798 
    8170   0.87480207   -1311.6992   -586.39809    22279.727    3.1227906    28.138652 
    8180   0.82896625   -1146.3251   -1376.0108    23969.704    2.9026191    28.832849 
    8190    0.8500885    -1279.774   -1181.3323    22939.082    3.0330298     28.41354 
    8200   0.86381289   -1311.5111   -592.87037    22285.962    3.1219169    28.141276 
    8210    0.8207777   -1147.2133   -1374.2163    23961.801    2.9035764     28.82968 
    8220   0.84274616   -1277.5078   -1188.6515    22958.811    3.0304235    28.421683 
    8230   0.85795126   -1311.2693   -606.78913    22298.152    3.1202101    28.146407 
    8240   0.81690049   -1148.7276   -1368.4647    23944.695    2.9056507    28.822818 
    8250   0.83880221   -1275.7859   -1194.1505    22973.928    3.0284294     28.42792 
    8260   0.85502894   -1311.0888   -608.44679    22300.713    3.1198519    28.147484 
    8270   0.81529749   -1149.7952   -1363.3461    23931.521    2.9072502    28.817531 
    8280   0.83734453   -1272.8014   -1198.7521    22995.225    3.0256246    28.436702 
    8290   0.85498543   -1310.6753   -621.56545    22313.116    3.1181176    28.152702 
    8300   0.81842527   -1155.2438    -1339.499    23865.658    2.9152735     28.79107 
    8310    0.8387235   -1263.0484   -1219.6746    23070.164    3.0157965    28.467559 
    8320   0.85764454   -1308.6886   -726.65979    22404.659    3.1053774    28.191149 
    8330   0.86476415   -1311.4592   -539.00695    22247.414    3.1273262    28.125042 
    8340   0.82574381   -1150.0708   -1368.2321    23936.768    2.9066129    28.819637 
    8350   0.85033116   -1266.8943   -1199.6851        23030     3.021056    28.451029 
    8360   0.86773441    -1305.774   -817.57186    22491.974    3.0933221    28.227724 
    8370   0.86064212   -1278.3266   -1155.5562    22925.837    3.0347822     28.40807 
    8380   0.88003184   -1309.8263   -641.35277    22333.528    3.1152678    28.161283 
    8390   0.85524041   -1196.7736   -1258.1314    23503.528    2.9601905    28.644705 
    8400   0.85100734   -1154.9343   -1345.3247    23876.336    2.9139697    28.795363 
    8410    0.8754168   -1258.5256    -1209.284    23087.069    3.0135882    28.474511 
    8420   0.86756286   -1180.0063   -1280.3133    23634.706    2.9437608    28.697897 
    8430   0.90747156     -1310.08   -610.92742    22309.568    3.1186136    28.151209 
    8440   0.87415495   -1159.2912   -1327.0845    23825.483    2.9201893    28.774905 
    8450   0.89158227   -1215.2743   -1242.6428    23374.142    2.9765765    28.592045 
    8460   0.89938523   -1221.6054    -1237.633     23330.93    2.9820894    28.574415 
    8470   0.92189745   -1293.5768    -1034.333    22737.069    3.0599775    28.329886 
    8480   0.94063953    -1310.063   -605.17804    22305.776    3.1191437    28.149614 
    8490   0.90977104   -1169.7875   -1300.6603     23725.24    2.9325275    28.734493 
    8500   0.94656749   -1299.0612   -946.20872    22633.465    3.0739844    28.286791 
    8510   0.92767184   -1182.3074   -1279.2035     23619.72    2.9456285     28.69183 
    8520   0.96707284   -1305.7938   -794.19621    22474.735    3.0956948     28.22051 
    8530    0.9592726   -1263.1833   -1193.1624    23046.592    3.0188811     28.45786 
    8540    0.9797982   -1299.4065   -939.94576    22626.714    3.0749017    28.283978 
    8550   0.95556565   -1161.7459    -1326.416    23809.283    2.9221762    28.768382 
    8560   0.97757555   -1221.7926   -1238.0874     23331.12    2.9820652    28.574493 
    8570    1.0163571   -1309.9391   -612.82488    22312.776    3.1181651    28.152558 
    8580   0.98522065   -1172.3642   -1294.8896    23702.297    2.9353662    28.725227 
    8590    1.0316604   -1307.5266   -742.05975    22424.963    3.1025657    28.199662 
    8600    1.0022945   -1170.4895   -1300.3439    23720.881    2.9330665    28.732733 
    8610    1.0089069   -1163.6211   -1318.1915    23787.145    2.9248958    28.759463 
    8620    1.0288661   -1215.5668   -1248.1154    23379.126    2.9759419    28.594077 
    8630     1.037373   -1220.8102   -1243.0676    23342.188    2.9806512    28.579011 
    8640    1.0543079   -1268.6906   -1175.0256     22998.79    3.0251557    28.438171 
    8650    1.0835854   -1310.7935     -554.649    22264.436    3.1249352    28.132213 
    8660    1.0404871   -1159.2347   -1331.2451    23831.784    2.9194172    28.777442 
    8670    1.0516811   -1188.1205   -1267.9889    23570.228    2.9518137    28.671776 
    8680    1.0591587   -1214.4333   -1248.2382    23385.698    2.9751056    28.596757 
    8690    1.0491835   -1169.2079   -1301.8576     23730.47    2.9318812    28.736604 
    8700    1.0502862   -1178.7727   -1279.9651    23642.987    2.9427297    28.701248 
    8710    1.0923991   -1311.7131   -501.88802    22220.095    3.1311712    28.113525 
    8720    1.0382505   -1152.9509   -1346.8996    23892.536    2.9119939    28.801874 
    8730    1.0591555    -1259.303   -1210.6808    23084.391    3.0139378     28.47341 
    8740    1.0414886   -1192.8468   -1262.3479     23533.22    2.9564555    28.656762 
    8750    1.0270773   -1150.3902    -1356.681    23921.535    2.9084639    28.813522 
    8760    1.0542425   -1278.4269    -1159.753    22929.581    3.0342866    28.409617 
    8770    1.0712128   -1310.4132    -629.6389    22321.832    3.1169002    28.156366 
    8780    1.0245024   -1160.0753   -1312.1179    23801.618    2.9231172    28.765295 
    8790    1.0375171   -1226.7387    -1245.771    23307.433    2.9850957     28.56482 
    8800    1.0585095   -1304.9808   -872.46116    22540.585     3.086651    28.248045 
    8810    1.0199065   -1159.8859     -1306.91    23796.193    2.9237836    28.763109 
    8820    1.0478274    -1288.392   -1120.3266    22838.882    3.0463365    28.372109 
    8830     1.065072   -1311.4956   -586.59604    22282.984     3.122334    28.140023 
    8840    1.0150149    -1147.521   -1361.4576    23945.631    2.9055371    28.823193 
    8850    1.0451063     -1281.45   -1169.9964    22921.131    3.0354051    28.406127 
    8860    1.0651556   -1311.6874   -579.88563    22276.542     3.123237    28.137311 
    8870    1.0143053   -1145.5226   -1370.2257    23969.842    2.9026024    28.832904 
    8880    1.0454654   -1283.2531   -1170.2174    22911.051    3.0367407    28.401962 
    8890    1.0654359   -1311.8663    -575.1393    22271.659    3.1239217    28.135255 
    8900    1.0139687   -1143.5972   -1374.3277    23987.875    2.9004203    28.840133 
    8910    1.0467714    -1287.037   -1155.8908    22876.966    3.0412652     28.38787 
    8920     1.065919   -1312.0254   -569.64068    22266.308    3.1246726    28.133001 
    8930    1.0137613   -1142.0175   -1382.1941    24008.289    2.8979541    28.848312 
    8940    1.0470632   -1287.3453    -1161.324    22879.788      3.04089    28.389037 
    8950    1.0664265   -1312.1557   -564.54891    22261.405    3.1253606    28.130937 
    8960    1.0136102   -1140.9919   -1389.5901     24024.31    2.8960216    28.854727 
    8970    1.0471552   -1287.7704   -1167.8767    22883.014    3.0404614    28.390371 
    8980    1.0664776   -1312.3382   -566.98726    22261.957    3.1252831    28.131169 
[...]
   37860    113.46261   -1042.1001    9895.1996    19348.254    3.5959276    26.846062 
   37870    114.18028   -1037.7214    10065.638    19314.264    3.6022558    26.830332 
   37880    114.87828   -1040.5949    9967.2956    19333.951    3.5985878    26.839445 
   37890    115.78653   -1040.0808    9993.5325    19328.872    3.5995335    26.837095 
   37900    116.73991   -1038.9919    10038.862    19320.293    3.6011317    26.833124 
   37910     117.5291   -1042.1818    9925.5904    19343.735    3.5967677    26.843972 
   37920    118.46393   -1037.3772    10103.165    19309.605     3.603125    26.828175 
   37930    118.94892    -1043.767    9865.0791    19358.956    3.5939397    26.851011 
   37940    119.76306   -1035.4891    10161.761    19301.942    3.6045555    26.824625 
   37950    119.96192   -1044.8503    9811.4685    19374.163    3.5911188     26.85804 
   37960    120.73984   -1033.7142    10212.397      19296.3    3.6056093    26.822012 
   37970    120.82506     -1045.76    9764.3731    19387.723    3.5886071    26.864305 
   37980    121.73755   -1032.2063    10255.862    19290.999    3.6066002    26.819555 
   37990    121.87445   -1046.6008     9726.657    19397.619    3.5867763    26.868874 
   38000    122.99137   -1031.2551    10291.213     19284.99    3.6077239     26.81677 
   38010    123.17192   -1047.6539    9696.7763    19403.402    3.5857073    26.871544 
   38020    124.36501   -1031.1888    10317.406    19278.146    3.6090048    26.813598 
   38030    124.41636   -1048.7997    9678.7053    19404.863    3.5854374    26.872219 
   38040    125.44485   -1031.4376     10323.12    19274.994    3.6095949    26.812136 
   38050    125.22623   -1048.8315    9688.8382    19400.832    3.5861823    26.870358 
   38060    125.90886   -1032.8493    10288.925    19279.494    3.6087524    26.814223 
   38070    125.43698   -1047.7676    9743.6094    19387.606    3.5886287    26.864251 
   38080    125.66667   -1035.4844    10194.295    19296.749    3.6055256     26.82222 
   38090    125.08118   -1044.4124    9864.1898    19362.056    3.5933643    26.852444 
   38100     124.8133   -1039.8481    10037.735    19326.309    3.6000107    26.835909 
   38110    124.29886   -1039.6829    10042.535    19324.642    3.6003213    26.835137 
   38120    123.54484   -1045.0468    9842.6696    19363.951    3.5930126     26.85332 
   38130    123.24529   -1034.2578    10244.255    19282.692    3.6081539    26.815705 
   38140    122.08313   -1050.4063    9652.7418    19399.953    3.5863448    26.869952 
   38150    122.02466   -1029.4541    10420.417    19245.854    3.6150602    26.798618 
   38160    120.57101   -1054.1425    9519.7592    19424.372    3.5818363    26.881221 
   38170    120.67322   -1026.7871    10522.337    19223.318    3.6192982    26.788154 
   38180    119.09874   -1055.3414    9472.3251    19431.692    3.5804869    26.884598 
   38190    119.25846   -1026.6733    10532.667     19218.73    3.6201622    26.786023 
   38200    117.74722   -1054.4956    9503.0943    19423.306    3.5820328     26.88073 
   38210    117.87768   -1028.3079     10471.31    19229.114    3.6182073    26.790846 
   38220    116.55419   -1052.3067    9582.7876     19405.92    3.5852421    26.872707 
   38230      116.619   -1030.6941     10374.62    19247.818    3.6146913    26.799529 
   38240    115.58591   -1049.5022    9680.1796    19386.244    3.5888809    26.863621 
   38250    115.69929   -1033.2046    10272.881    19268.296    3.6108497     26.80903 
   38260     115.1497   -1046.8183    9772.9855    19367.739    3.5923099    26.855071 
   38270    115.57901   -1035.8553    10182.984    19285.161     3.607692    26.816849 
   38280    115.73153   -1045.2284    9855.2777    19348.682     3.595848     26.84626 
   38290    116.66382    -1038.978    10103.988    19296.626    3.6055485    26.822163 
   38300      117.547   -1044.6152    9928.3471    19327.911    3.5997124     26.83665 
   38310    118.90548      -1042.7    10032.419    19302.834    3.6043888    26.825039 
   38320    120.29705   -1044.8211    9996.8338     19304.72    3.6040368    26.825912 
   38330    121.77787   -1046.9025    9965.8828    19305.264    3.6039352    26.826164 
   38340    123.31515   -1045.4823    10063.447    19280.193    3.6086216    26.814546 
   38350    124.51353    -1051.082    9902.5533    19306.617    3.6036826    26.826791 
   38360    125.77447   -1045.8994    10126.394    19257.576    3.6128596    26.804058 
   38370    126.25618   -1054.3074    9843.4055    19310.035    3.6030447    26.828374 
   38380    126.81519   -1045.5209     10183.98    19240.061    3.6161486    26.795929 
   38390     126.2266   -1056.0718    9792.8202    19317.131    3.6017213     26.83166 
   38400    125.80709   -1044.0385    10230.692    19231.037    3.6178456    26.791739 
   38410    124.08089   -1056.0186    9754.1252    19328.826     3.599542    26.837074 
   38420    122.74493   -1041.2018    10263.769    19232.057    3.6176537    26.792212 
   38430    120.19989   -1054.2169    9729.5699    19344.249    3.5966722     26.84421 
   38440    118.34624   -1037.7267    10278.903    19242.042    3.6157763    26.796848 
   38450    115.56846   -1051.1736    9722.3524    19360.223    3.5937045    26.851597 
   38460    113.77309    -1034.503    10274.094    19258.033    3.6127741    26.804269 
   38470    111.41494   -1047.3177    9737.9099    19372.387    3.5914479    26.857219 
   38480    110.22852   -1032.2787    10243.439    19277.888     3.609053    26.813478 
   38490    108.81948   -1043.9117     9779.155    19375.597     3.590853    26.858703 
   38500    108.58904   -1032.2194    10183.726    19298.608    3.6051781    26.823081 
   38510    108.38733   -1041.0257     9852.239    19366.927    3.5924605    26.854696 
   38520    109.13257   -1034.4712     10089.44    19320.744    3.6010476    26.833333 
   38530     110.0725   -1038.2296    9963.4064    19345.771    3.5963891    26.844914 
   38540    111.47049   -1038.5717     9958.869    19346.297    3.5962913    26.845157 
   38550    113.21514    -1035.123    10110.192    19314.671    3.6021799    26.830521 
   38560    114.70958    -1044.195     9797.552    19375.815    3.5908125    26.858804 
   38570     116.7763   -1031.6495    10285.018     19276.91    3.6092362    26.813024 
   38580     117.7996   -1050.2103    9622.8506    19407.988      3.58486    26.873661 
   38590    119.81415   -1027.8634    10463.957    19239.009    3.6163463     26.79544 
   38600    120.11036   -1055.5429     9461.162    19438.508    3.5792314    26.887741 
   38610    121.96831   -1024.2322    10619.852    19206.832    3.6224047    26.780494 
   38620    121.65188   -1059.0977    9347.1003    19460.299    3.5752236    26.897784 
   38630    123.40488   -1022.6082     10704.55    19188.274    3.6259081    26.771866 
   38640    122.76362    -1060.677    9313.0964    19464.838    3.5743898    26.899875 
   38650    124.36669    -1023.557    10686.572    19189.357    3.6257035     26.77237 
   38660    123.61423   -1059.4258    9384.5135    19446.999    3.5776687    26.891655 
   38670    124.83216   -1027.8805    10551.424    19212.466    3.6213425    26.783112 
   38680    124.06547   -1055.2067    9552.6704    19410.018    3.5844851    26.874598 
   38690    124.67047   -1033.5841    10355.334    19248.499    3.6145635    26.799845 
   38700    123.90576   -1050.3534    9735.3027    19371.512    3.5916103    26.856815 
   38710    123.90726   -1038.1846    10189.512    19280.136    3.6086323     26.81452 
   38720    123.13034   -1046.7893    9868.8475    19343.974    3.5967232    26.844083 
   38730    122.69603   -1040.8396    10080.509    19301.965    3.6045511    26.824636 
   38740    121.89332   -1043.9565    9954.9944     19327.48    3.5997927    26.836451 
   38750      121.152   -1042.2499    10009.576    19317.097    3.6017276    26.831644 
   38760    120.28539   -1041.7195    10017.221    19316.416    3.6018546    26.831329 
   38770    119.26903   -1043.0105    9954.1213    19330.223    3.5992819     26.83772 
   38780    118.32882   -1039.4046     10066.73    19309.405    3.6031623    26.828082 
   38790     117.1374   -1043.0269    9910.2463    19342.571    3.5969841    26.843434 
   38800    116.26854   -1037.1364    10106.392    19305.319    3.6039249     26.82619 
   38810    115.17481   -1042.8633     9876.549    19352.926    3.5950596    26.848223 
   38820    114.65866   -1035.3253    10136.795    19302.426    3.6044651     26.82485 
   38830    113.94899   -1042.8893     9851.307    19360.127    3.5937223    26.851553 
   38840    113.94826   -1034.5081     10157.64    19299.176    3.6050721    26.823344 
   38850    113.69402   -1043.1118    9834.7421    19363.817    3.5930375    26.853258 
   38860    114.16857   -1034.2125    10169.674    19296.347    3.6056006    26.822034 
   38870    114.30519    -1043.666    9826.5696    19364.312    3.5929455    26.853487 
   38880    115.15028   -1034.5864    10174.608    19293.924    3.6060533    26.820911 
   38890    115.58797   -1044.1749    9827.5255    19362.789    3.5932282    26.852783 
   38900    116.68838   -1035.1793    10169.057    19294.194    3.6060029    26.821036 
   38910    117.34582   -1044.3779    9838.3634    19360.172    3.5937139    26.851573 
   38920    118.58823   -1035.9004    10150.325    19298.544    3.6051901    26.823051 
   38930    119.39565   -1044.0334    9863.0081    19356.344    3.5944247    26.849803 
   38940     120.6553   -1037.3731    10112.689    19307.583    3.6035022    26.827239 
   38950    121.52174   -1042.8121    9912.7696    19349.126    3.5957656    26.846465 
   38960    122.58273   -1039.0758    10044.261    19324.998    3.6002551    26.835302 
   38970    123.37962   -1040.0917    9997.6424    19336.818    3.5980543    26.840772 
   38980    123.99712   -1041.5796    9934.3977    19352.071    3.5952183    26.847828 
   38990    124.66977   -1035.9593    10128.735    19316.054    3.6019221    26.831161 
   39000    124.70085   -1044.8869    9785.0741    19387.855    3.5885828    26.864365 
   39010    125.31696   -1030.8003    10292.155    19289.069    3.6069611    26.818661 
   39020    124.79175   -1048.4005    9625.6107     19425.55     3.581619    26.881765 
   39030    125.47023    -1025.724    10449.607    19262.734    3.6118923     26.80645 
   39040    124.57996   -1051.5793    9493.8772    19455.885    3.5760348     26.89575 
   39050    125.43742   -1022.3286    10563.253    19242.764    3.6156406    26.797184 
   39060    124.46147   -1053.5377      9419.18    19472.099     3.573057     26.90322 
   39070    125.57471   -1021.3638    10609.775    19232.737    3.6175258    26.792528 
   39080     124.7442   -1054.4244    9409.9551    19471.178    3.5732261    26.902795 
   39090    126.02978   -1022.8812    10585.979    19233.142    3.6174496    26.792716 
   39100    125.37186   -1054.0295    9461.9321    19454.941    3.5762083    26.895315 
   39110    126.54999   -1026.2807    10502.455     19243.31    3.6155382    26.797437 
   39120     125.9068    -1052.305    9561.6151    19428.305    3.5811113    26.883035 
   39130    126.61891   -1030.4629    10383.033    19260.991    3.6122192    26.805642 
   39140    125.78228     -1049.69    9684.2557    19398.545    3.5866052    26.869302 
   39150    125.77718    -1034.512    10247.453    19284.588    3.6077992    26.816584 
   39160    124.65847   -1045.9325    9816.4014    19370.783    3.5917453    26.856478 
   39170    123.92437   -1037.4637    10112.299    19312.566    3.6025726    26.829546 
   39180    122.64091   -1041.3222    9944.9677    19347.993    3.5959761    26.845942 
   39190    121.43731    -1039.467    9990.0243    19341.286     3.597223    26.842839 
   39200    120.27556   -1036.7647    10059.279    19330.309    3.5992658     26.83776 
   39210    118.99075   -1040.7881    9884.1446    19368.143     3.592235    26.855258 
   39220     118.2458   -1033.0027    10157.374    19315.495    3.6020262    26.830903 
   39230    117.18208   -1042.3854     9798.818    19389.091    3.5883539    26.864936 
   39240    116.98127   -1030.3627     10234.59    19303.081    3.6043428    26.825153 
   39250    116.24744   -1043.6732    9735.5237    19404.035    3.5855903    26.871837 
   39260    116.56334   -1028.5518    10287.363    19294.034    3.6060328    26.820962 
   39270    116.17234   -1044.5342    9697.7131    19412.119    3.5840972    26.875568 
   39280    116.93862   -1028.0227    10315.167    19287.658    3.6072248    26.818007 
   39290      116.889   -1045.4869    9682.5302    19413.146    3.5839075    26.876042 
   39300    118.01347   -1028.4668    10319.614    19284.143    3.6078823    26.816378 
   39310    118.24688   -1045.9417    9692.4193    19407.695    3.5849142    26.873526 
   39320    119.56251   -1029.9665    10296.264    19284.747    3.6077694    26.816658 
   39330    119.95069   -1045.9002     9724.966     19396.89    3.5869111    26.868538 
   39340    121.22859   -1032.0874    10252.288    19289.129    3.6069498    26.818689 
   39350    121.60742   -1045.3701    9777.2394      19382.2    3.5896297    26.861753 
   39360    122.62904   -1034.6627    10189.792    19297.761    3.6053365    26.822688 
   39370    122.88575   -1044.3735    9844.9926    19365.221    3.5927771    26.853907 
   39380    123.53127   -1037.5254    10114.018    19309.989    3.6030533    26.828353 
   39390    123.65779   -1043.0583    9923.3338    19346.986    3.5961632    26.845476 
   39400    123.92304   -1040.2496     10028.31    19325.535    3.6001549    26.835551 
   39410    123.98979    -1040.969    10012.016    19327.957    3.5997038    26.836672 
   39420    123.91728   -1043.1627     9933.931    19343.053    3.5968945    26.843656 
   39430    123.97026   -1038.5576    10112.624    19306.484    3.6037074     26.82673 
   39440    123.53309   -1046.3441    9829.7975    19362.259    3.5933266    26.852538 
   39450    123.53939   -1036.0161    10219.549    19283.325    3.6080355    26.815998 
   39460    122.65933   -1049.5696    9724.5122    19381.185    3.5898178    26.861284 
   39470    122.53508   -1033.1176     10330.62    19259.246    3.6125464    26.804832 
   39480    121.13984   -1052.5811    9620.2724    19399.617    3.5864069    26.869797 
   39490    120.82813   -1030.5895    10436.233    19235.369    3.6170307     26.79375 
   39500    118.94633    -1055.247    9529.8286    19414.772    3.5836074    26.876792 
   39510    118.49615    -1028.637    10514.717    19216.946    3.6204982    26.785194 
   39520    116.38563    -1056.632    9474.0999    19423.562    3.5819857    26.880848 
   39530    116.02382   -1027.3631    10551.943    19207.692    3.6222426    26.780893 
   39540    114.09637    -1056.598      9465.08    19423.577    3.5819829    26.880854 
   39550     114.0552   -1027.9518    10526.744    19210.721    3.6216716    26.782301 
   39560    112.64173   -1055.2262    9516.9918    19410.913    3.5843199    26.875011 
   39570    112.96676   -1030.6784    10435.574    19226.127    3.6187694    26.789459 
   39580    112.19215   -1052.4893    9629.7595    19385.433     3.589031    26.863247 
   39590    112.75531   -1034.8571    10290.229    19252.206    3.6138675    26.801566 
   39600    112.59125   -1048.8397    9786.9355    19350.686    3.5954756    26.847187 
   39610    113.21692   -1040.1774    10114.247    19284.136    3.6078838    26.816374 
   39620    113.58319    -1044.714    9958.6028    19313.708    3.6023596    26.830075 
   39630    114.18118   -1045.0953    9950.3157     19314.36     3.602238    26.830377 
   39640    115.00434   -1041.1408    10109.869    19281.338    3.6084073    26.815077 
   39650     115.5795   -1049.1848    9824.4362    19337.039    3.5980131    26.840874 
   39660    116.75163   -1038.9261    10215.704    19258.051    3.6127706    26.804278 
   39670    117.28973   -1051.8532     9748.683     19349.99    3.5956049    26.846865 
   39680     118.6185    -1038.024    10269.804    19245.363    3.6151523     26.79839 
   39690    119.05602   -1053.3067    9721.1181    19353.427    3.5949664    26.848455 
   39700    120.32608   -1038.3875    10281.749    19241.204    3.6159338     26.79646 
   39710    120.60173   -1053.7424    9726.3945    19350.986      3.59542    26.847326 
   39720    121.68613   -1039.4652    10264.659     19243.38     3.615525    26.797469 
   39730    121.80619   -1053.5962    9751.3616     19345.12    3.5965101    26.844613 
   39740    122.65032   -1040.6585    10232.955     19249.29     3.614415    26.800212 
   39750    122.60445   -1052.7087    9787.3917    19338.166    3.5978034    26.841396 
   39760    123.12508   -1041.6619     10192.45    19258.105    3.6127604    26.804303 
   39770     122.8297   -1051.4676    9830.0304    19330.803    3.5991738    26.837989 
   39780    122.90751   -1042.7791    10147.438     19268.67    3.6107796    26.809203 
   39790    122.29534   -1049.8129    9875.3606    19324.516    3.6003448    26.835079 
   39800    121.91958   -1043.1636    10098.819    19282.456    3.6081981    26.815596 
   39810    121.09772   -1047.3196    9924.1452    19319.775    3.6012284    26.832884 
   39820    120.46879   -1043.3584    10047.982    19297.743    3.6053398     26.82268 
   39830    119.71706   -1044.7336    9975.0354    19314.782    3.6021592    26.830572 
   39840     119.1452   -1043.7746    9996.5165    19312.379    3.6026075     26.82946 
   39850    118.74089   -1042.6228    10026.474    19307.891    3.6034448    26.827381 
   39860    118.41907   -1044.6467    9945.1728    19324.952    3.6002635    26.835281 
   39870    118.43256   -1040.9321    10077.358    19299.087    3.6050887    26.823303 
   39880    118.30742   -1045.9942    9893.6138    19335.656    3.5982704    26.840234 
   39890    118.57849   -1039.3841    10134.686    19287.806    3.6071972    26.818076 
   39900    118.39757   -1047.5033    9830.4315    19348.901    3.5958074    26.846361 
   39910    118.70571   -1037.1723     10210.25     19273.77    3.6098242    26.811569 
   39920    118.23044    -1049.646    9739.4662    19369.045    3.5920677    26.855675 
   39930    118.51734   -1033.6887     10324.43    19253.926    3.6135446    26.802364 
   39940    117.68573   -1052.5676    9609.6268     19399.09    3.5865044    26.869554 
   39950    118.09488    -1029.005    10467.784     19230.42    3.6179615    26.791452 
   39960    117.04804   -1055.2014    9484.1376    19429.596    3.5808732    26.883631 
   39970    117.72048   -1025.3833     10565.15    19216.617    3.6205603    26.785041 
   39980    116.73658   -1055.5422     9436.629    19444.331    3.5781596    26.890425 
   39990    117.68005   -1024.7949    10559.015    19221.866    3.6195715    26.787479 
   40000    117.01847   -1053.7711    9489.4228    19436.391    3.5796214    26.886764 
Loop time of 5.0747 on 1 procs for 20000 steps with 500 atoms

Performance: 340.513 ns/day, 0.070 hours/ns, 3941.123 timesteps/s
95.5% CPU use with 1 MPI tasks x no OpenMP threads

MPI task timing breakdown:
Section |  min time  |  avg time  |  max time  |%varavg| %total
---------------------------------------------------------------
Pair    | 4.2953     | 4.2953     | 4.2953     |   0.0 | 84.64
Neigh   | 0.11422    | 0.11422    | 0.11422    |   0.0 |  2.25
Comm    | 0.15655    | 0.15655    | 0.15655    |   0.0 |  3.08
Output  | 0.024693   | 0.024693   | 0.024693   |   0.0 |  0.49
Modify  | 0.42432    | 0.42432    | 0.42432    |   0.0 |  8.36
Other   |            | 0.05957    |            |       |  1.17

Nlocal:    500 ave 500 max 500 min
Histogram: 1 0 0 0 0 0 0 0 0 0
Nghost:    1427 ave 1427 max 1427 min
Histogram: 1 0 0 0 0 0 0 0 0 0
Neighs:    13513 ave 13513 max 13513 min
Histogram: 1 0 0 0 0 0 0 0 0 0

Total # of neighbors = 13513
Ave neighs/atom = 27.026
Neighbor list builds = 174
Dangerous builds = 1
Total wall time: 0:00:10
