LAMMPS (7 Aug 2019)
Reading data file ...
  orthogonal box = (-1.4719 -1.4719 -1.4719) to (26.4719 26.4719 26.4719)
  1 by 1 by 1 MPI processor grid
  reading atoms ...
  500 atoms
  reading velocities ...
  500 velocities
  read_data CPU = 0.00274801 secs
Neighbor list info ...
  update every 1 steps, delay 10 steps, check yes
  max neighbors/atom: 2000, page size: 100000
  master list distance cutoff = 8
  ghost atom cutoff = 8
  binsize = 4, bins = 7 7 7
  1 neighbor lists, perpetual/occasional/extra = 1 0 0
  (1) pair lj/cut, perpetual
      attributes: half, newton on
      pair build: half/bin/atomonly/newton
      stencil: half/bin/3d/newton
      bin: standard
Setting up Verlet run ...
  Unit style    : real
  Current step  : 0
  Time step     : 1
Per MPI rank memory allocation (min/avg/max) = 3.998 | 3.998 | 3.998 Mbytes
Step Temp PotEng Press Volume Density Lx 
       0   0.94924373   -1315.7856    26.487323    21820.062    3.1885758    27.943791 
      10   0.94783995   -1315.7838    21.968551    21823.054    3.1881386    27.945068 
      20   0.94662173   -1315.7816    9.9332075    21831.011    3.1869766    27.948464 
      30   0.94572447   -1315.7769   -5.4480294    21841.219     3.185487     27.95282 
      40   0.94531522   -1315.7692   -18.902897    21850.201    3.1841776    27.956651 
      50   0.94554655   -1315.7609   -25.873245    21854.907     3.183492    27.958658 
      60   0.94650943   -1315.7538   -24.017891    21853.753    3.1836601    27.958166 
      70   0.94819368   -1315.7473   -13.959515    21847.161    3.1846206    27.955355 
      80   0.95046138   -1315.7392    0.9124846    21837.415    3.1860419    27.951197 
      90    0.9530388   -1315.7279    15.535649    21827.883    3.1874333    27.947129 
     100   0.95553471    -1315.715    24.872963    21821.867    3.1883121    27.944561 
     110   0.95749328   -1315.7024    25.677421    21821.469    3.1883701    27.944392 
     120   0.95847982   -1315.6906    17.667542    21826.872    3.1875808    27.946698 
     130   0.95817637   -1315.6776    3.6305183    21836.271    3.1862089    27.950709 
     140    0.9564489   -1315.6616   -11.591029    21846.496    3.1847176    27.955071 
     150   0.95335477   -1315.6437   -22.807234    21854.102    3.1836092    27.958315 
     160   0.94909021   -1315.6263   -26.235532    21856.545    3.1832534    27.959356 
     170   0.94390926   -1315.6105    -20.72783    21853.044    3.1837633    27.957864 
     180   0.93805599   -1315.5948   -8.1338375    21844.853    3.1849571     27.95437 
     190   0.93173518   -1315.5769    7.2873834    21834.828    3.1864194    27.950093 
     200   0.92511996   -1315.5566    20.261957    21826.458    3.1876413    27.946521 
     210   0.91837697   -1315.5359    26.303146    21822.671    3.1881946    27.944905 
     220   0.91168682   -1315.5166    23.307364    21824.825    3.1878799    27.945824 
     230   0.90524493   -1315.4979     12.32146    21832.246    3.1867963    27.948991 
     240   0.89923926   -1315.4774   -2.8416038    21842.456    3.1853066    27.953348 
     250   0.89381249   -1315.4546   -16.974885    21852.028    3.1839113     27.95743 
     260    0.8890233   -1315.4312   -25.283559    21857.759    3.1830766    27.959874 
     270   0.88482377   -1315.4095   -24.976454    21857.762    3.1830762    27.959875 
     280   0.88106521   -1315.3894   -16.159398    21852.107    3.1838998    27.957464 
     290   0.87753452   -1315.3687    -1.800771    21842.799    3.1852566    27.953494 
     300   0.87401093   -1315.3455    13.222008    21833.092    3.1866729    27.949352 
     310    0.8703241    -1315.321    23.746803     21826.38    3.1876527    27.946488 
     320   0.86639419   -1315.2972    26.121927    21825.037     3.187849    27.945915 
     330   0.86224226    -1315.275    19.521345    21829.595    3.1871833     27.94786 
     340   0.85797069   -1315.2526    6.2465119    21838.567    3.1858739    27.951688 
     350   0.85372247    -1315.228   -9.1135263    21848.956    3.1843591     27.95612 
     360   0.84963356   -1315.2017   -21.311136    21857.284    3.1831457    27.959672 
     370   0.84579225    -1315.176   -26.227307    21860.786    3.1826359    27.961165 
     380   0.84221674   -1315.1523   -22.215692    21858.343    3.1829915    27.960123 
     390   0.83885566   -1315.1294   -10.624221    21850.871      3.18408    27.956937 
     400   0.83560983    -1315.105    4.6334092        21841    3.1855189    27.952726 
     410   0.83236766   -1315.0782    18.351301    21832.187    3.1868049    27.948966 
     420    0.8290422    -1315.051    25.796256    21827.528    3.1874851    27.946978 
     430   0.82559789   -1315.0252    24.380235    21828.699    3.1873141    27.947478 
     440   0.82205831   -1315.0004    14.600761     21835.38    3.1863388    27.950329 
     450   0.81849302   -1314.9744  -0.14271997    21845.365    3.1848825    27.954588 
     460   0.81498922    -1314.946   -14.777861    21855.321    3.1834316    27.958834 
     470    0.8116187   -1314.9167   -24.331038    21861.931    3.1824692    27.961653 
     480   0.80841157   -1314.8888   -25.590028    21863.026    3.1823098     27.96212 
     490   0.80534532   -1314.8627   -18.136785    21858.321    3.1829947    27.960114 
     500   0.80235239   -1314.8364   -4.4781363    21849.513    3.1842778    27.956358 
     510   0.79934326   -1314.8079    10.756325      21839.7    3.1857085    27.952172 
     520   0.79623746   -1314.7776    22.344685     21832.33    3.1867841    27.949027 
     530   0.79299172   -1314.7478    26.274619    21830.014    3.1871221    27.948039 
     540    0.7896153   -1314.7196    21.180263    21833.638    3.1865932    27.949585 
     550   0.78616706   -1314.6916    8.8404996     21842.05    3.1853658    27.953174 
     560   0.78273533   -1314.6617   -6.4722534    21852.465    3.1838477    27.957617 
     570   0.77940808   -1314.6299   -19.517388    21861.416    3.1825441    27.961433 
     580   0.77624395   -1314.5982   -25.884104    21865.943    3.1818851    27.963363 
     590   0.77325387   -1314.5685   -23.439978    21864.602    3.1820804    27.962791 
     600   0.77039925     -1314.54   -13.008514    21857.949    3.1830489    27.959955 
     610   0.76760689   -1314.5104    1.8931852    21848.357    3.1844463    27.955865 
     620   0.76479576   -1314.4786    16.192395    21839.204    3.1857809     27.95196 
     630   0.76190651    -1314.446    24.966873    21833.721    3.1865809    27.949621 
     640    0.7589236   -1314.4147    25.171499    21833.886    3.1865569    27.949691 
     650   0.75588206   -1314.3848    16.739793    21839.741    3.1857026    27.952189 
     660   0.75285654   -1314.3543    2.6065406    21849.384    3.1842967    27.956303 
     670   0.74993669   -1314.3217   -12.357642    21859.618    3.1828058    27.960667 
     680   0.74719799    -1314.288   -23.058901    21867.052    3.1817238    27.963836 
     690   0.74467797   -1314.2554   -25.895709    21869.257    3.1814031    27.964776 
     700     0.742366    -1314.225    -19.92304    21865.588    3.1819368    27.963212 
     710   0.74020945   -1314.1951   -7.1495024    21857.409    3.1831276    27.959725 
     720   0.73813445   -1314.1633    8.1036611    21847.619    3.1845539     27.95555 
     730   0.73607414   -1314.1298    20.620974    21839.674    3.1857124    27.952161 
     740   0.73399507   -1314.0966    26.077884      21836.4      3.18619    27.950764 
     750   0.73191234   -1314.0653    22.579494    21839.024    3.1858072    27.951883 
     760    0.7298883   -1314.0348    11.349965    21846.755    3.1846798    27.955181 
     770   0.72801525   -1314.0031   -3.7171353    21857.055     3.183179    27.959574 
     780    0.7263887   -1313.9695    -17.45633    21866.514    3.1818021    27.963607 
     790   0.72508068    -1313.936   -25.215547    21872.013    3.1810022     27.96595 
     800   0.72412206   -1313.9045   -24.394718     21871.79    3.1810345    27.965856 
     810   0.72349963    -1313.875   -15.275224    21866.036    3.1818716    27.963403 
     820   0.72316824   -1313.8451  -0.92864747    21856.827    3.1832123    27.959477 
     830   0.72307422   -1313.8135    13.772108    21847.418    3.1845831    27.955464 
     840   0.72318195   -1313.7811    23.778716    21841.137     3.185499    27.952785 
     850   0.72349457   -1313.7503    25.624548    21840.239    3.1856299    27.952402 
     860   0.72406154   -1313.7215    18.672087    21845.138    3.1849156    27.954492 
     870   0.72497178   -1313.6686    5.4948119    21854.262    3.1835859    27.958383 
     880   0.72633649   -1313.6142   -9.4906466    21864.618    3.1820781    27.962798 
     890   0.72827305   -1313.5836   -21.320802    21872.805    3.1808869    27.966288 
     900   0.73081271   -1313.5297   -25.730249    21876.154       3.1804    27.967715 
     910   0.73399416   -1313.4787   -21.391953    21873.657     3.180763    27.966651 
     920    0.7377662   -1313.4537   -9.9226679     21866.31    3.1818318     27.96352 
     930   0.74206807   -1313.4525    4.8043984    21856.721    3.1832278    27.959431 
     940   0.74684014   -1313.4256    18.055795     21848.24    3.1844635    27.955814 
     950   0.75204762   -1313.3991    25.125746    21843.854    3.1851028    27.953944 
     960   0.75768388   -1313.3505    23.714388    21845.156     3.184913    27.954499 
     970   0.76378274   -1313.3282    14.041288    21851.808    3.1839434    27.957336 
     980   0.77039948   -1313.3058  -0.40627429    21861.639    3.1825117    27.961528 
     990   0.77760332    -1313.282   -14.664534    21871.376    3.1810948    27.965679 
    1000   0.78544684   -1313.2584   -23.895328    21877.784     3.180163     27.96841 
    1010    0.7939536   -1313.2125   -24.857555    21878.772    3.1800195    27.968831 
    1020   0.80308685   -1313.1938   -17.525984    21874.115    3.1806965    27.966846 
    1030   0.81276086   -1313.1757   -4.2217781    21865.489    3.1819513     27.96317 
    1040   0.82286953   -1313.1565    10.548063    21855.918    3.1833446    27.959089 
    1050   0.83330837   -1313.1611    21.583888    21848.744      3.18439    27.956029 
    1060   0.84399371   -1313.1425    25.361748    21846.465    3.1847221    27.955058 
    1070   0.85487781   -1313.1262    20.428382    21849.928    3.1842174    27.956534 
    1080    0.8659606   -1313.1109    8.5065093    21858.014    3.1830395    27.959983 
    1090   0.87728005   -1313.0701   -6.1406862    21868.033    3.1815811    27.964254 
    1100   0.88887429   -1313.0527   -18.794305    21876.655    3.1803272    27.967929 
    1110   0.90077468   -1312.9872   -24.753918    21881.024    3.1796922    27.969791 
    1120   0.91297436   -1312.9735   -22.586891    21879.756    3.1798764     27.96925 
    1130   0.92538114   -1312.9617   -12.747414    21873.365    3.1808056    27.966527 
    1140   0.93788886   -1312.9743    1.2971995    21864.091    3.1821548    27.962574 
    1150   0.95039451   -1313.0103    14.778554    21855.118    3.1834612    27.958748 
    1160   0.96276003   -1312.9972    23.500938     21849.51    3.1842783    27.956356 
    1170   0.97489373    -1312.986    24.151668    21849.226    3.1843197    27.956235 
    1180   0.98675714    -1312.977    16.511124     21854.41    3.1835644    27.958446 
    1190   0.99836929   -1312.8948    3.6867703    21863.333     3.182265    27.962251 
    1200    1.0097972   -1312.8608   -10.606545    21873.056    3.1808504    27.966395 
    1210    1.0210596   -1312.8513   -21.389594     21880.36    3.1797887    27.969508 
    1220    1.0321552   -1312.8192   -24.750441    21882.806    3.1794332     27.97055 
    1230    1.0430421   -1312.8149   -19.860752    21879.625    3.1798954    27.969195 
    1240    1.0536115   -1312.8616   -8.5117917     21871.93    3.1810142    27.965915 
    1250    1.0637212    -1312.859    6.0230798    21862.333    3.1824106    27.961824 
    1260    1.0731743    -1312.856    18.506221    21854.114    3.1836074     27.95832 
    1270    1.0817858   -1312.8544    24.636311    21850.097    3.1841927    27.956607 
    1280    1.0894045   -1312.8557     22.29009     21851.66     3.183965    27.957273 
    1290    1.0959314   -1312.8594    12.290239    21858.269    3.1830023    27.960092 
    1300    1.1013274   -1312.8145   -1.6190236    21867.676    3.1816331    27.964102 
    1310    1.1055765   -1312.8184    -15.23978    21876.706    3.1803198    27.967951 
    1320    1.1086688   -1312.8236   -23.663285    21882.273    3.1795106    27.970323 
    1330    1.1106004   -1312.8322   -24.066433    21882.465    3.1794827    27.970405 
    1340    1.1113622   -1312.8935   -16.621322    21877.192    3.1802491    27.968158 
    1350    1.1109775   -1312.9319   -3.4061792    21868.172    3.1815609    27.964313 
    1360    1.1094459   -1312.9949    10.832501    21858.385    3.1829853    27.960141 
    1370     1.106839   -1313.0338    21.511838    21851.066    3.1840515     27.95702 
    1380    1.1032922   -1313.0506    24.940445    21848.627     3.184407     27.95598 
    1390    1.0990675   -1313.0953    19.652625    21851.822    3.1839414    27.957342 
    1400    1.0944985   -1313.0928     7.917716    21859.472    3.1828271    27.960605 
    1410    1.0899565    -1313.115   -6.6453173    21868.911    3.1814534    27.964628 
    1420    1.0858088   -1313.1127   -18.768241    21876.843    3.1802998    27.968009 
    1430    1.0823535    -1313.137   -24.646536    21880.508    3.1797671    27.969571 
    1440    1.0797897   -1313.1648    -22.16842    21878.577    3.1800478    27.968748 
    1450     1.078204   -1313.1955   -12.170799    21871.619    3.1810594    27.965783 
    1460    1.0775743   -1313.2513    1.8268439    21861.912    3.1824719    27.961645 
    1470    1.0777991    -1313.282    15.351599    21852.643    3.1838218    27.957692 
    1480    1.0787343    -1313.338    23.483809    21846.851    3.1846659    27.955222 
    1490    1.0802289   -1313.3719    23.693337     21846.38    3.1847345    27.955021 
    1500    1.0821669   -1313.4081    15.765862    21851.271    3.1840217    27.957107 
    1510    1.0844847   -1313.4448    2.4598028    21859.728    3.1827898    27.960714 
    1520    1.0871663   -1313.4806   -11.642634    21868.738    3.1814785    27.964555 
    1530    1.0902187   -1313.5163   -21.743193    21875.103    3.1805527    27.967268 
    1540    1.0936528   -1313.5294   -24.303386    21876.539    3.1803441    27.967879 
    1550    1.0974145   -1313.5697    -18.76088    21872.458    3.1809374     27.96614 
    1560     1.101406   -1313.6356   -6.9803907    21864.127    3.1821494    27.962589 
    1570    1.1054888   -1313.7006    7.1936054    21854.234      3.18359    27.958371 
    1580     1.109479   -1313.7399    19.064651    21845.993    3.1847909    27.954856 
    1590     1.113191   -1313.7796    24.400304    21842.079    3.1853616    27.953187 
    1600    1.1165022    -1313.821    21.355017    21843.688     3.185127    27.953873 
    1610    1.1193643   -1313.8632    10.997698    21850.127    3.1841883     27.95662 
    1620    1.1218063   -1313.9043   -3.0803266    21859.052    3.1828882    27.960425 
    1630    1.1239134   -1313.9436   -16.051775    21867.274    3.1816915    27.963931 
    1640    1.1257891   -1313.9828   -23.522076    21871.851    3.1810257    27.965882 
    1650    1.1275137   -1314.0237   -22.986646    21871.091    3.1811363    27.965557 
    1660    1.1291132    -1314.066   -14.633184    21865.122    3.1820047    27.963013 
    1670     1.130549   -1314.1079   -1.2791695    21855.848    3.1833548    27.959059 
    1680    1.1317311   -1314.1477    12.538877    21846.304    3.1847456    27.954989 
    1690     1.132551   -1314.1863    22.080161    21839.612    3.1857214    27.952134 
    1700     1.132922   -1314.2255    24.045986    21837.924    3.1859677    27.951414 
    1710    1.1328139   -1314.2659    17.761571    21841.674    3.1854207    27.953014 
    1720    1.1322684   -1314.3058    5.4190534    21849.438    3.1842887    27.956326 
    1730    1.1313894   -1314.3437   -8.7195609    21858.425    3.1829796    27.960158 
    1740    1.1303131   -1314.3801   -19.829441     21865.43    3.1819599    27.963144 
    1750    1.1291664    -1314.417   -24.163275    21867.935    3.1815954    27.964212 
    1760    1.1280301   -1314.4555   -20.275202    21864.962     3.182028    27.962945 
    1770    1.1269178   -1314.4947   -9.4792426    21857.401    3.1831287    27.959721 
    1780    1.1257779   -1314.5324    4.5727575    21847.709    3.1845407    27.955588 
    1790    1.1245171   -1314.5681     17.08598    21839.071    3.1858003    27.951904 
    1800    1.1230382   -1314.6032    23.750344    21834.311    3.1864948    27.949873 
    1810    1.1212868    -1314.664    22.110882    21834.924    3.1864055    27.950134 
    1820     1.119272   -1314.7009    13.035883     21840.54    3.1855861     27.95253 
    1830    1.1170443   -1314.7366  -0.46137578    21849.101    3.1843379    27.956182 
    1840    1.1147141   -1314.7703   -13.740798    21857.551    3.1831069    27.959785 
    1850    1.1124024   -1314.8032   -22.291766    21862.882    3.1823308    27.962058 
    1860    1.1102021   -1314.8373   -23.241362    21863.157    3.1822907    27.962176 
    1870    1.1081481   -1314.8729   -16.280743    21858.169    3.1830169    27.960049 
    1880    1.1062066   -1314.9082   -3.7601763    21849.505    3.1842791    27.956354 
    1890    1.1042875   -1314.9415     10.06976    21840.008    3.1856637    27.952303 
    1900    1.1022741   -1314.9733    20.469884    21832.807    3.1867144    27.949231 
    1910    1.1000627   -1315.0053    23.847715    21830.243    3.1870887    27.948136 
    1920    1.0975969   -1315.0383    19.038241     21833.07     3.186676    27.949343 
    1930    1.0948842   -1315.0711    7.7244704    21840.196    3.1856362    27.952384 
    1940     1.091991   -1315.1021   -6.1768427    21849.064    3.1843433    27.956166 
    1950    1.0890158   -1315.1311   -17.908441    21856.527     3.183256    27.959349 
    1960    1.0860513   -1315.1601   -23.502795    21859.927    3.1827609    27.960798 
    1970     1.083149   -1315.1904   -21.088009    21858.001    3.1830413    27.959977 
    1980    1.0802975   -1315.2213   -11.484813    21851.306    3.1840166    27.957122 
    1990    1.0774229   -1315.2509    2.0587759    21842.026    3.1853693    27.953164 
    2000    1.0744098    -1315.278    14.926794    21833.233    3.1866523    27.949412 
    2010    1.0711366    -1315.304    22.692989    21827.828    3.1874412    27.947106 
    2020    1.0675142   -1315.3304    22.671091    21827.558    3.1874807    27.946991 
    2030    1.0635129   -1315.3571    14.880618    21832.409    3.1867725    27.949061 
    2040    1.0591686   -1315.3824    2.0361188    21840.617    3.1855748    27.952563 
    2050    1.0545667   -1315.4052    -11.43458    21849.279    3.1843119    27.956258 
    2060    1.0498089   -1315.4263   -20.943257    21855.345    3.1834281    27.958845 
    2070    1.0449755   -1315.4476   -23.287599    21856.664     3.183236    27.959407 
    2080    1.0400968   -1315.4697   -17.690508     21852.71     3.183812    27.957721 
    2090    1.0351423   -1315.4912   -6.0444136    21844.762    3.1849704    27.954331 
    2100     1.030033   -1315.5102    7.6997154    21835.466    3.1863264    27.950365 
    2110    1.0246701   -1315.5266    18.838266    21827.929    3.1874265    27.947149 
    2120    1.0189731   -1315.5422    23.527947    21824.661    3.1879038    27.945754 
    2130    1.0129117    -1315.558    20.149029    21826.711    3.1876045    27.946629 
    2140    1.0065216   -1315.5731    9.8896125    21833.308    3.1866412    27.949445 
    2150   0.99989744   -1315.5858    -3.690162    21842.134    3.1853536     27.95321 
    2160   0.99316673   -1315.5957   -15.931417    21850.117    3.1841898    27.956615 
    2170   0.98645423   -1315.6044   -22.684848    21854.486    3.1835532    27.958479 
    2180   0.97984971   -1315.6136    -21.68654    21853.716    3.1836654     27.95815 
    2190   0.97339037   -1315.6228   -13.283802    21848.041    3.1844924     27.95573 
    2200   0.96706344   -1315.6304  -0.32011593    21839.375     3.185756    27.952033 
    2210    0.9608278    -1315.635    12.790056    21830.657    3.1870282    27.948313 
    2220   0.95464708   -1315.6375    21.542521    21824.846    3.1878767    27.945833 
    2230   0.94852265   -1315.6398    22.911426     21823.91    3.1880135    27.945434 
    2240   0.94251456   -1315.6421    16.432717    21828.148    3.1873946    27.947242 
    2250   0.93674317    -1315.643    4.3688552    21836.092     3.186235    27.950632 
    2260    0.9313707   -1315.6412   -9.1128072    21845.015    3.1849335    27.954439 
    2270   0.92656967   -1315.6372   -19.410562    21851.868    3.1839347    27.957362 
    2280   0.92248902   -1315.6329   -23.050651    21854.319    3.1835775    27.958407 
    2290   0.91922864   -1315.6293   -18.821871    21851.551    3.1839808    27.957227 
    2300   0.91682957   -1315.6253   -8.1590465    21844.532    3.1850039    27.954233 
    2310   0.91528101   -1315.6191     5.321304    21835.685    3.1862943    27.950459 
    2320   0.91454009   -1315.6104    17.011372    21828.062    3.1874072    27.947206 
    2330   0.91455582   -1315.6006    22.882384    21824.295    3.1879573    27.945598 
    2340   0.91528739   -1315.5911    20.905572    21825.701    3.1877519    27.946198 
    2350   0.91670934   -1315.5814    11.782105    21831.825    3.1868577    27.948812 
    2360   0.91880132   -1315.5699   -1.3164677    21840.604    3.1855767    27.952558 
    2370   0.92152673   -1315.5558   -13.887814    21849.076    3.1843416    27.956171 
    2380   0.92480907   -1315.5405   -21.663347    21854.394    3.1835666    27.958439 
    2390   0.92851595   -1315.5257   -22.033441    21854.803    3.1835071    27.958613 
    2400   0.93245804   -1315.5116   -14.888411    21850.225     3.184174    27.956661 
    2410   0.93640537   -1315.4964   -2.6485738    21842.292    3.1853306    27.953277 
    2420   0.94011807   -1315.4788    10.522175    21833.779    3.1865725    27.949646 
    2430   0.94338376   -1315.4593    20.105896    21827.663    3.1874653    27.947036 
    2440   0.94605101   -1315.4395    22.793343      21826.1    3.1876936    27.946368 
    2450   0.94804848   -1315.4203    17.662993    21829.686      3.18717    27.947899 
    2460   0.94938343   -1315.4003    6.5109853    21837.256    3.1860652    27.951129 
    2470   0.95012001   -1315.3782   -6.8036245    21846.288    3.1847479    27.954982 
    2480   0.95034485   -1315.3541   -17.727775     21853.77    3.1836575    27.958173 
    2490   0.95013136   -1315.3297   -22.570644     21857.23    3.1831536    27.959648 
    2500   0.94951451   -1315.3064   -19.716715    21855.575    3.1833947    27.958943 
    2510   0.94848342   -1315.2833   -10.140002    21849.463    3.1842852    27.956336 
    2520   0.94699342   -1315.2587    2.9130322    21841.073    3.1855084    27.952757 
    2530   0.94499247   -1315.2319    14.988065    21833.363    3.1866333    27.949468 
    2540   0.94245211   -1315.2041    21.931306    21829.056     3.187262     27.94763 
    2550    0.9393913   -1315.1769    21.345451    21829.711    3.1871664    27.947909 
    2560   0.93588383   -1315.1501    13.449126    21835.185    3.1863673    27.950245 
    2570   0.93204621   -1315.1222   0.99235532    21843.691    3.1851266    27.953874 
    2580   0.92801025   -1315.0922   -11.735336     21852.41    3.1838558    27.957593 
    2590      0.92389   -1315.0612   -20.404272     21858.46    3.1829744    27.960173 
    2600   0.91975453   -1315.0309   -22.100038    21859.882    3.1827674    27.960779 
    2610   0.91561551   -1315.0017   -16.267983    21856.299    3.1832892    27.959251 
    2620   0.91143337   -1314.9723   -4.8853513    21849.043    3.1843463    27.956157 
    2630   0.90713969   -1314.9412     8.180872    21840.702    3.1855624    27.952599 
    2640   0.90266818   -1314.9085    18.457612    21834.231    3.1865065    27.949839 
    2650   0.89798363   -1314.8757    22.402635    21831.945    3.1868402    27.948863 
    2660   0.89309866   -1314.8439    18.659639    21834.723    3.1864347    27.950048 
    2670   0.88807256   -1314.8122     8.544364    21841.713     3.185415    27.953031 
    2680   0.88299298    -1314.779   -4.4370605    21850.625    3.1841159    27.956832 
    2690   0.87794742   -1314.7442   -15.837565    21858.519    3.1829659    27.960198 
    2700   0.87299511   -1314.7092   -21.798973    21862.815    3.1823404     27.96203 
    2710   0.86814894   -1314.6755   -20.328356    21862.167    3.1824347    27.961754 
    2720   0.86337339   -1314.6427   -11.935819    21856.919    3.1831989    27.959516 
    2730   0.85859916   -1314.6092   0.53449349    21848.984     3.184355    27.956132 
    2740   0.85374931   -1314.5738     12.83426    21841.191    3.1854912    27.952808 
    2750   0.84876817   -1314.5377    20.740693    21836.319    3.1862019    27.950729 
    2760   0.84364317   -1314.5023     21.52703    21836.143    3.1862275    27.950654 
    2770   0.83841159   -1314.4678    14.935866    21840.833    3.1855434    27.952655 
    2780   0.83315042    -1314.433     3.267007    21848.891    3.1843685    27.956092 
    2790   0.82795299   -1314.3966   -9.4549163    21857.676    3.1830887    27.959838 
    2800   0.82290109   -1314.3592   -18.894927    21864.305    3.1821235    27.962665 
    2810   0.81804238   -1314.3227   -21.874735    21866.644    3.1817832    27.963662 
    2820   0.81338057   -1314.2877   -17.408954    21864.023    3.1821647    27.962545 
    2830   0.80888127   -1314.2532   -7.0155343    21857.467    3.1831191    27.959749 
    2840   0.80449119   -1314.2176    5.7780138    21849.342    3.1843028    27.956285 
    2850   0.80016431   -1314.1808    16.600045    21842.546    3.1852936    27.953386 
    2860   0.79588577   -1314.1441    21.726814    21839.519     3.185735    27.952095 
    2870   0.79168534   -1314.1089    19.393969    21841.409    3.1854593    27.952901 
    2880   0.78763584   -1314.0745     10.42787     21847.68     3.184545    27.955576 
    2890   0.78383719   -1314.0395   -2.0592351    21856.299    3.1832892    27.959251 
    2900   0.78039223   -1314.0035   -13.782909    21864.437    3.1821044    27.962721 
    2910   0.77738885    -1313.943    -20.63302    21869.448    3.1813753    27.964857 
    2920   0.77488244   -1313.8843   -20.462525     21869.78    3.1813269    27.964999 
    2930   0.77286455   -1313.8519   -13.485168    21865.474    3.1819534    27.963163 
    2940   0.77130053   -1313.8198   -1.9188826    21858.126    3.1830231    27.960031 
    2950   0.77015749   -1313.8115    10.150332    21850.365    3.1841536    27.956721 
    2960   0.76941902   -1313.7783    18.866349    21844.937    3.1849449    27.954406 
    2970   0.76909973   -1313.7219    21.251151    21843.788    3.1851125    27.953916 
    2980   0.76926529    -1313.692    16.214158     21847.43    3.1845815    27.955469 
    2990   0.76997283   -1313.6629    5.6453027    21854.732    3.1835174    27.958583 
    3000   0.77136232   -1313.5844    -6.524069    21863.313    3.1822679    27.962242 
    3010   0.77349598   -1313.5548   -16.710077    21870.393    3.1812377     27.96526 
    3020   0.77640685   -1313.5265   -21.184772    21873.672    3.1807608    27.966658 
    3030   0.78011635   -1313.5005   -18.459468    21872.143    3.1809833    27.966006 
    3040   0.78460747   -1313.4764    -9.467417    21866.435    3.1818136    27.963573 
    3050   0.78983542   -1313.4524    2.7420176      21858.6    3.1829541    27.960233 
    3060     0.795746    -1313.428    14.006006    21851.409    3.1840016    27.957166 
    3070   0.80229582   -1313.4044    20.457633    21847.405     3.184585    27.955459 
    3080   0.80946769   -1313.3828    19.877173    21848.038    3.1844928    27.955729 
    3090    0.8172762   -1313.3632     12.48337    21853.165    3.1837457    27.957915 
    3100   0.82576142    -1313.344   0.84840471    21861.106    3.1825892    27.961301 
    3110   0.83497286   -1313.3246   -11.026761    21869.225    3.1814077    27.964762 
    3120   0.84495728   -1313.2565   -18.831689    21874.845    3.1805903    27.967158 
    3130   0.85572094   -1313.2397   -20.514156    21876.178    3.1803965    27.967726 
    3140   0.86721546   -1313.2253   -15.234709    21872.857    3.1808793     27.96631 
    3150     0.879368   -1313.2368   -4.9344018    21866.093    3.1818634    27.963427 
    3160   0.89207926   -1313.2236    7.1766344    21858.239    3.1830066    27.960079 
    3170   0.90523516   -1313.2104    16.818703    21852.033    3.1839106    27.957432 
    3180   0.91873433   -1313.1986    20.677144    21849.649     3.184258    27.956416 
    3190   0.93250445   -1313.1889    17.430627    21851.948    3.1839231    27.957396 
    3200   0.94655538   -1313.1808    8.2169837    21858.187    3.1830142    27.960057 
    3210   0.96085751   -1313.1484    -3.630735    21866.282    3.1818358    27.963508 
    3220   0.97538683   -1313.1404    -14.34479    21873.536    3.1807806      27.9666 
    3230   0.99011568   -1313.1336   -20.153982    21877.523     3.180201    27.968299 
    3240    1.0049979   -1313.1049   -18.969425    21876.932    3.1802868    27.968047 
    3250    1.0199564   -1313.0785   -11.346874    21872.037    3.1809987    27.965961 
    3260    1.0348072   -1313.0775 -0.024208473    21864.578    3.1820838    27.962782 
    3270    1.0493242   -1313.0766    11.283543    21857.138    3.1831669    27.959609 
    3280    1.0632936   -1313.0764    18.701126    21852.274    3.1838754    27.957535 
    3290    1.0765112   -1313.0783    19.677302    21851.655    3.1839658    27.957271 
    3300    1.0888007   -1313.0825    13.889678    21855.488    3.1834074    27.958905 
    3310    1.1000179    -1313.088    3.3549724    21862.455    3.1823928    27.961876 
    3320    1.1100514   -1313.0692   -8.1552752    21870.173    3.1812698    27.965166 
    3330    1.1187971   -1313.1004   -17.157577    21876.018    3.1804198    27.967657 
    3340    1.1261414   -1313.0849   -20.059537    21877.981    3.1801345    27.968494 
    3350    1.1318945    -1313.097   -16.326433    21875.391    3.1805109     27.96739 
    3360    1.1359159    -1313.136    -7.227153    21869.107    3.1814249    27.964712 
    3370    1.1381049    -1313.176    4.3015226    21861.202    3.1825753    27.961342 
    3380    1.1383887    -1313.192    14.468584    21854.297    3.1835808    27.958398 
    3390    1.1368515   -1313.2098    19.634975    21850.686    3.1841069    27.956858 
    3400    1.1337524   -1313.2303    18.028789    21851.527    3.1839844    27.957216 
    3410    1.1295105   -1313.2532    10.225642    21856.443    3.1832682    27.959313 
    3420      1.12466   -1313.2527  -0.93230473    21863.675    3.1822153    27.962396 
    3430    1.1197365   -1313.2774   -11.897099    21870.678    3.1811963    27.965382 
    3440    1.1152268   -1313.3037   -18.797204    21874.969    3.1805723     27.96721 
    3450    1.1114979   -1313.3328   -19.318134    21874.989    3.1805694    27.967219 
    3460    1.1087803   -1313.3893   -13.450608    21870.631    3.1812032    27.965361 
    3470    1.1071804   -1313.4476   -3.0453941    21863.247    3.1822775    27.962214 
    3480    1.1066285   -1313.5064    8.3773194    21855.195      3.18345    27.958781 
    3490    1.1069837   -1313.5902    16.752524    21849.066     3.184343    27.956167 
    3500    1.1081375   -1313.6513    19.483337    21846.759    3.1846792    27.955183 
    3510    1.1098671     -1313.69    15.665584    21848.864    3.1843724    27.956081 
    3520     1.112032   -1313.7299     6.490244    21854.507    3.1835502    27.958487 
    3530    1.1145327   -1313.7696   -4.8673549    21861.605    3.1825166    27.961514 
    3540    1.1173103   -1313.8336   -14.671207    21867.582    3.1816467    27.964062 
    3550    1.1203273    -1313.874   -19.319038    21870.232    3.1812612    27.965191 
    3560    1.1234666    -1313.916   -17.395107    21868.499    3.1815133    27.964453 
    3570    1.1266038    -1313.959   -9.5620827    21862.833    3.1823378    27.962037 
    3580    1.1295994   -1314.0261    1.3896494    21855.012    3.1834767    27.958703 
    3590    1.1322362   -1314.0673    12.012536    21847.533    3.1845664    27.955513 
    3600    1.1343132   -1314.1077    18.515746    21842.796     3.185257    27.953493 
    3610    1.1356693   -1314.1483    18.667685    21842.259    3.1853354    27.953263 
    3620    1.1362064   -1314.1889    12.436808    21845.943    3.1847983    27.954835 
    3630    1.1358994   -1314.2283    1.9968071    21852.429     3.183853    27.957601 
    3640    1.1347862   -1314.2655    -9.054787    21859.351    3.1828448    27.960553 
    3650    1.1329386   -1314.3011   -16.953943    21864.206    3.1821379    27.962623 
    3660    1.1304274   -1314.3362   -19.041262    21865.211    3.1819917    27.963051 
    3670    1.1272926   -1314.3713   -14.630721    21861.904     3.182473    27.961641 
    3680     1.123529   -1314.4053   -5.2251644    21855.299    3.1834348    27.958825 
    3690    1.1190927    -1314.437    5.9772989    21847.538    3.1845657    27.955515 
    3700    1.1139254   -1314.4662    15.147722    21841.157    3.1854961    27.952793 
    3710    1.1079867    -1314.494    19.136664    21838.221    3.1859244    27.951541 
    3720    1.1012838   -1314.5211    16.580368    21839.617    3.1857207    27.952136 
    3730     1.093886   -1314.5471    8.3840949    21844.756    3.1849712    27.954329 
    3740    1.0859197   -1314.5707   -2.6095262    21851.778    3.1839478    27.957323 
    3750    1.0775454   -1314.5918   -12.631533    21858.191    3.1830137    27.960058 
    3760    1.0689244   -1314.6115   -18.286272    21861.728    3.1824986    27.961566 
    3770    1.0601895   -1314.6309   -17.682505    21861.118    3.1825874    27.961306 
    3780    1.0514265     -1314.65   -11.044023    21856.511    3.1832583    27.959342 
    3790    1.0426747   -1314.6676  -0.63052202    21849.424    3.1842908     27.95632 
    3800    1.0339432   -1314.6829    10.007213    21842.223    3.1853406    27.953248 
    3810    1.0252384   -1314.6966    17.222689     21837.31    3.1860573    27.951152 
    3820    1.0165912   -1314.7098    18.536076    21836.303    3.1862041    27.950723 
    3830     1.008075   -1314.7229    13.510647    21839.487    3.1857397    27.952081 
    3840   0.99980791   -1314.7351    3.9031469    21845.714    3.1848317    27.954737 
    3850   0.99193875   -1314.7455   -6.9706167    21852.806    3.1837981    27.957762 
    3860   0.98462215   -1314.7547   -15.401112    21858.301    3.1829976    27.960105 
    3870   0.97799156   -1314.7638   -18.546432    21860.296    3.1827071    27.960956 
    3880    0.9721391   -1314.7737     -15.3668     21858.09    3.1830283    27.960015 
    3890    0.9671083   -1314.7838   -6.9551743    21852.417    3.1838546    27.957596 
    3900   0.96290128    -1314.793    3.8242369    21845.195    3.1849072    27.954516 
    3910   0.95949736   -1314.8009    13.287424    21838.866    3.1858303    27.951816 
    3920   0.95687655   -1314.8086    18.185433    21835.562    3.1863124    27.950406 
    3930   0.95503981   -1314.8171    16.839977    21836.375    3.1861937    27.950753 
    3940   0.95401905   -1314.8261    9.7373614    21840.989    3.1855206    27.952722 
    3950    0.9538734   -1314.8346  -0.65317838    21847.788    3.1845292    27.955622 
    3960    0.9546727   -1314.8422   -10.761525    21854.421    3.1835628    27.958451 
    3970    0.9564737   -1314.8497   -17.155068    21858.599    3.1829543    27.960232 
    3980   0.95929631   -1314.8583   -17.689806    21858.883    3.1829129    27.960353 
    3990   0.96310718   -1314.8681   -12.206923    21855.166    3.1834542    27.958768 
    4000   0.96781556   -1314.8781   -2.5769782    21848.705    3.1843956    27.956013 
    4010   0.97328252   -1314.8873    7.9174972    21841.688    3.1854186     27.95302 
    4020   0.97934085   -1314.8961    15.683274    21836.488    3.1861772    27.950801 
    4030   0.98581936   -1314.9053    18.054091    21834.849    3.1864164    27.950102 
    4040   0.99256382   -1314.9156    14.229052    21837.291      3.18606    27.951144 
    4050   0.99944765    -1314.926    5.5528926    21842.939    3.1852361    27.953554 
    4060     1.006369   -1314.9357   -4.9720749    21849.825    3.1842324    27.956491 
    4070    1.0132358   -1314.9447   -13.746089    21855.564    3.1833962    27.958938 
    4080    1.0199447    -1314.954   -17.803582    21858.177    3.1830157    27.960052 
    4090    1.0263625   -1314.9645    -15.79466    21856.754    3.1832229    27.959445 
    4100    1.0323176   -1314.9756   -8.4179771    21851.766    3.1839495    27.957319 
    4110     1.037607   -1314.9861    1.8135092    21844.898    3.1849506    27.954389 
    4120    1.0420174   -1314.9957    11.406351    21838.469    3.1858882    27.951646 
    4130    1.0453564   -1315.0047    17.071439    21834.641    3.1864467    27.950013 
    4140    1.0474842   -1315.0143    16.868028    21834.683    3.1864406    27.950031 
    4150     1.048336   -1315.0242    10.888833    21838.532     3.185879    27.951674 
    4160    1.0479284   -1315.0335    1.2194125    21844.828    3.1849608    27.954359 
    4170    1.0463474   -1315.0416   -8.8096693    21851.379     3.184006    27.957153 
    4180    1.0437241   -1315.0491   -15.784205    21855.916    3.1833449    27.959088 
    4190    1.0402044    -1315.057   -17.358624    21856.869    3.1832061    27.959495 
    4200    1.0359253   -1315.0657   -13.022935    21853.895    3.1836394    27.958226 
    4210    1.0310014   -1315.0744   -4.2609677     21847.99    3.1844998    27.955708 
    4220    1.0255274   -1315.0819    5.9409549    21841.149    3.1854972     27.95279 
    4230    1.0195905   -1315.0884    14.093264     21835.68    3.1862951    27.950457 
    4240     1.013289   -1315.0947    17.399506    21833.416    3.1866256     27.94949 
    4250    1.0067459   -1315.1015     14.73638    21835.087    3.1863816    27.950204 
    4260    1.0001129   -1315.1082    7.0483971    21840.079    3.1856533    27.952334 
    4270   0.99356128   -1315.1139   -2.9974094    21846.646    3.1846957    27.955135 
    4280   0.98726204   -1315.1185    -11.95719    21852.514    3.1838406    27.957637 
    4290   0.98136261    -1315.123   -16.795465    21855.657    3.1833827    27.958978 
    4300   0.97596722   -1315.1281   -15.896272    21854.992    3.1834795    27.958694 
    4310   0.97112778   -1315.1336   -9.5851423    21850.738    3.1840993     27.95688 
    4320   0.96684835   -1315.1387 -0.015442242    21844.338    3.1850322     27.95415 
    4330    0.9631017   -1315.1425    9.5463181    21837.965    3.1859617    27.951431 
    4340   0.95985291   -1315.1456    15.824432    21833.775    3.1865731    27.949644 
    4350   0.95708264   -1315.1488    16.668085    21833.174    3.1866608    27.949387 
    4360   0.95480232   -1315.1523    11.808256    21836.338    3.1861991    27.950737 
    4370   0.95305646   -1315.1552    2.9463706    21842.156    3.1853504    27.953219 
    4380   0.95191145   -1315.1569    -6.858305    21848.618    3.1844083    27.955976 
    4390   0.95143483   -1315.1577   -14.260644    21853.507    3.1836958    27.958061 
    4400   0.95167212   -1315.1586   -16.765613    21855.155    3.1834558    27.958764 
    4410    0.9526289   -1315.1601   -13.549235    21853.007    3.1837687    27.957848 
    4420   0.95426367   -1315.1614   -5.7195407    21847.808    3.1845263     27.95563 
    4430   0.95649377   -1315.1617     4.052823    21841.342     3.185469    27.952872 
    4440   0.95921216   -1315.1606    12.426864    21835.823    3.1862743    27.950518 
    4450    0.9623095   -1315.1591    16.531885    21833.133    3.1866668     27.94937 
    4460   0.96569389   -1315.1576    14.969105    21834.186    3.1865131    27.949819 
    4470   0.96930156   -1315.1559    8.3030246    21838.613    3.1858671    27.951708 
    4480   0.97309478   -1315.1532    -1.148283    21844.898    3.1849505    27.954389 
    4490   0.97704826   -1315.1491   -10.138392    21850.901    3.1840756    27.956949 
    4500   0.98112934   -1315.1443   -15.615737    21854.589    3.1835383    27.958522 
    4510   0.98527977   -1315.1398   -15.746377    21854.733    3.1835173    27.958584 
    4520   0.98940632   -1315.1355    -10.51017    21851.319    3.1840147    27.957128 
    4530   0.99338432   -1315.1307   -1.6990835    21845.548    3.1848559    27.954666 
    4540   0.99707406   -1315.1245    7.6786546    21839.422    3.1857492    27.952053 
    4550    1.0003452   -1315.1173    14.412275    21835.059    3.1863857    27.950192 
    4560    1.0031017   -1315.1098    16.194983     21833.97    3.1865447    27.949727 
    4570    1.0052984   -1315.1026     12.43269    21836.539    3.1861697    27.950823 
    4580    1.0069444   -1315.0948    4.4482458    21841.905    3.1853869    27.953113 
    4590    1.0080911    -1315.086    -4.997152    21848.255    3.1844612    27.955821 
    4600    1.0088104   -1315.0762   -12.675589     21853.45    3.1837042    27.958037 
    4610    1.0091698   -1315.0664   -15.994723    21855.759    3.1833678    27.959021 
    4620    1.0092135   -1315.0573   -13.855866    21854.444    3.1835593    27.958461 
    4630    1.0089553   -1315.0484   -7.0056948    21850.006     3.184206    27.956568 
    4640    1.0083848    -1315.039    2.2159063    21844.008    3.1850803    27.954009 
    4650    1.0074847   -1315.0286    10.657106    21838.541    3.1858776    27.951677 
    4660    1.0062523   -1315.0179     15.42605    21835.507    3.1863203    27.950383 
    4670    1.0047175   -1315.0076    14.895259    21835.969     3.186253     27.95058 
    4680    1.0029498   -1314.9977    9.2723223     21839.79    3.1856955     27.95221 
    4690    1.0010527   -1314.9875   0.51755715    21845.689    3.1848353    27.954726 
    4700   0.99914573   -1314.9766   -8.3563435     21851.68    3.1839621    27.957282 
    4710   0.99734139   -1314.9655    -14.33157    21855.757    3.1833681    27.959021 
    4720   0.99572334   -1314.9551   -15.402536    21856.578    3.1832485    27.959371 
    4730   0.99433363   -1314.9456   -11.231899    21853.916    3.1836364    27.958235 
    4740   0.99317212   -1314.9364     -3.25233    21848.729     3.184392    27.956023 
    4750   0.99220777   -1314.9266     5.811567    21842.837    3.1852511     27.95351 
    4760   0.99139795   -1314.9163    12.859337    21838.287    3.1859148    27.951569 
    4770   0.99070894   -1314.9062    15.478544    21836.662    3.1861518    27.950876 
    4780   0.99013062   -1314.8968     12.78716    21838.539     3.185878    27.951676 
    4790   0.98968034   -1314.8876     5.739633    21843.293    3.1851846    27.953705 
    4800   0.98939472   -1314.8779   -3.2208284    21849.323    3.1843055    27.956277 
    4810   0.98931228   -1314.8675   -11.025256    21854.599    3.1835368    27.958527 
    4820   0.98945334   -1314.8573   -15.032432     21857.36    3.1831346    27.959704 
    4830   0.98980391   -1314.8478   -13.908392    21856.712    3.1832291    27.959427 
    4840   0.99030945   -1314.8388   -8.0570392    21852.924    3.1837808    27.957812 
    4850   0.99088086   -1314.8295   0.52051282    21847.338    3.1845949     27.95543 
    4860   0.99141114   -1314.8192     8.894424      21841.9    3.1853877     27.95311 
    4870   0.99179769   -1314.8085    14.199309    21838.499    3.1858838    27.951659 
    4880   0.99196314   -1314.7978    14.625078     21838.32    3.1859099    27.951583 
    4890   0.99186788   -1314.7873    10.050026    21841.443    3.1854543    27.952916 
    4900   0.99151017   -1314.7763    2.0757563    21846.821    3.1846702     27.95521 
    4910    0.9909142   -1314.7641   -6.5472004    21852.644    3.1838216    27.957693 
    4920   0.99011058   -1314.7512   -12.879675    21856.961    3.1831928    27.959534 
    4930   0.98911646   -1314.7382   -14.790271    21858.347    3.1829909    27.960125 
    4940   0.98792218   -1314.7255   -11.656825    21856.385    3.1832767    27.959288 
    4950   0.98648935   -1314.7125   -4.5618366      21851.8    3.1839446    27.957333 
    4960   0.98476085   -1314.6984    4.0711481    21846.212     3.184759     27.95495 
    4970   0.98267942   -1314.6831    11.291336    21841.574    3.1854353    27.952971 
    4980   0.98020828   -1314.6671    14.629284    21839.511    3.1857362    27.952091 
    4990   0.97734625   -1314.6509    12.955688     21840.76     3.185554    27.952624 
    5000    0.9741317   -1314.6343    6.8742034    21844.928    3.1849462    27.954402 
    5010   0.97063358   -1314.6165   -1.5015596    21850.629    3.1841152    27.956834 
    5020   0.96693246   -1314.5975   -9.2972945    21855.964     3.183338    27.959109 
    5030   0.96309804   -1314.5777     -13.8695    21859.173    3.1828707    27.960477 
    5040   0.95917061   -1314.5578    -13.69085    21859.232    3.1828621    27.960502 
    5050   0.95515267   -1314.5379   -8.8467542    21856.198     3.183304    27.959208 
    5060   0.95101307   -1314.5172  -0.99858507    21851.183    3.1840345     27.95707 
    5070   0.94670207   -1314.4952    7.1724385    21845.972     3.184794    27.954847 
    5080   0.94217204   -1314.4721    12.871841    21842.411    3.1853132    27.953328 
    5090   0.93739664   -1314.4486    14.154167    21841.775    3.1854059    27.953057 
    5100   0.93238179    -1314.425    10.601273    21844.338    3.1850322     27.95415 
    5110   0.92716501   -1314.4008    3.4623742    21849.282    3.1843115    27.956259 
    5120   0.92180387   -1314.3754   -4.7960635    21854.985    3.1834806    27.958691 
    5130   0.91635833   -1314.3491   -11.354811    21859.575    3.1828121    27.960649 
    5140   0.91087368   -1314.3227   -14.002625    21861.577    3.1825206    27.961502 
    5150   0.90537045   -1314.2965    -11.86826    21860.404    3.1826915    27.961002 
    5160   0.89984473   -1314.2703   -5.6985456    21856.556    3.1832517    27.959361 
    5170   0.89427876   -1314.2434    2.3955613    21851.444    3.1839964    27.957181 
    5180   0.88865784   -1314.2156    9.6475796    21846.905     3.184658    27.955245 
    5190   0.88298757   -1314.1875    13.577817     21844.57    3.1849984    27.954249 
    5200   0.87730523   -1314.1598    12.852135    21845.313      3.18489    27.954566 
    5210   0.87168109   -1314.1322    7.7458409    21848.955    3.1843592     27.95612 
    5220   0.86622304   -1314.0798   0.17387693    21854.337    3.1835749    27.958415 
    5230   0.86101998   -1314.0516   -7.5473682    21859.731    3.1827895    27.960715 
    5240   0.85615864   -1314.0232    -12.64574    21863.391    3.1822566    27.962275 
    5250   0.85170772   -1313.9957   -13.413935    21864.173    3.1821428    27.962609 
    5260   0.84770807    -1313.969   -9.6185663    21861.919    3.1824709    27.961648 
    5270   0.84417756   -1313.9428   -2.5679403    21857.505    3.1831135    27.959766 
    5280   0.84112359   -1313.9165     5.327543    21852.539    3.1838369    27.957648 
    5290   0.83855875   -1313.8904    11.368553    21848.806    3.1843809    27.956056 
    5300   0.83651414    -1313.865    13.492369    21847.662    3.1845476    27.955568 
    5310   0.83504585   -1313.8407    10.989511    21849.571    3.1842694    27.956382 
    5320   0.83423272   -1313.8174    4.7466228    21853.952     3.183631    27.958251 
    5330   0.83422058   -1313.7455   -2.8045883    21859.403    3.1828371    27.960575 
    5340   0.83506069   -1313.6987   -9.5015447    21864.191    3.1821402    27.962616 
    5350   0.83680943    -1313.653   -12.921667    21866.797    3.1817609    27.963727 
    5360   0.83953467   -1313.6336   -12.074151    21866.455    3.1818107    27.963581 
    5370   0.84322139   -1313.6158   -7.1389418    21863.386    3.1822574    27.962273 
    5380   0.84786668   -1313.5991   0.19077081    21858.722    3.1829363    27.960285 
    5390   0.85345848   -1313.6078    7.2665323    21854.126    3.1836057    27.958325 
    5400   0.85999737   -1313.5685    12.102787    21851.208    3.1840309     27.95708 
    5410   0.86747929   -1313.5309    12.764144     21851.04    3.1840553    27.957009 
    5420   0.87591192   -1313.4952    9.0470099    21853.757    3.1836595    27.958168 
    5430   0.88529924   -1313.4609    2.2538355    21858.502    3.1829683    27.960191 
    5440   0.89565843   -1313.4276   -5.2690108    21863.728    3.1822075    27.962419 
    5450   0.90700879   -1313.3956   -10.953432    21867.727    3.1816255    27.964124 
    5460   0.91935399   -1313.3656   -12.883212    21869.217    3.1814088    27.964759 
    5470    0.9326002   -1313.3623   -10.586195    21867.778    3.1816182    27.964145 
    5480   0.94665799   -1313.3853   -4.8743196    21863.954    3.1821746    27.962515 
    5490   0.96142465   -1313.3851    2.5807619    21859.066    3.1828863    27.960431 
    5500   0.97673844   -1313.4105    8.9492141    21854.791    3.1835088    27.958608 
    5510   0.99244884   -1313.4375    12.196772    21852.572    3.1838322    27.957662 
    5520    1.0084004   -1313.4417    11.382706    21853.124    3.1837517    27.957898 
    5530    1.0244341   -1313.4476    6.6656823    21856.245    3.1832971    27.959228 
    5540    1.0403968   -1313.4547   -0.3133526    21860.854    3.1826259    27.961194 
    5550    1.0561282   -1313.4628   -7.1586317    21865.367     3.181969    27.963118 
    5560    1.0714454   -1313.4722   -11.547502    21868.236    3.1815515    27.964341 
    5570    1.0861246   -1313.4834   -12.012087    21868.478    3.1815164    27.964444 
    5580    1.0999031   -1313.4719   -8.2834203    21866.013    3.1818751    27.963393 
    5590    1.1124341   -1313.4863   -1.9323415     21861.69    3.1825042     27.96155 
    5600    1.1233387   -1313.5015    5.0193807    21856.959     3.183193    27.959533 
    5610    1.1322371   -1313.5177    10.197041    21853.393    3.1837125    27.958012 
    5620     1.138797    -1313.535    11.836724    21852.152    3.1838933    27.957483 
    5630     1.142807   -1313.5538    9.3962017    21853.593    3.1836834    27.958097 
    5640    1.1442584   -1313.5736     3.738556    21857.147    3.1831656    27.959613 
    5650    1.1434242   -1313.6187     -3.32243    21861.521    3.1825287    27.961478 
    5660    1.1408332     -1313.64    -9.083308    21865.123    3.1820045    27.963014 
    5670    1.1371866    -1313.687   -11.893491    21866.651    3.1817821    27.963665 
    5680     1.133229    -1313.711   -10.537073    21865.494    3.1819505    27.963172 
    5690    1.1295288   -1313.7363   -5.6266906    21861.964    3.1824643    27.961667 
    5700     1.126468    -1313.787    1.0232944    21857.173    3.1831618    27.959624 
    5710    1.1241652   -1313.8382    7.2768879    21852.644    3.1838216    27.957693 
    5720    1.1225994   -1313.8656    11.137594    21849.796    3.1842367    27.956478 
    5730     1.121656   -1313.9185    11.005953    21849.479    3.1842827    27.956343 
    5740    1.1212853   -1313.9971    6.9493895    21851.651    3.1839662     27.95727 
    5750    1.1213671   -1314.0272   0.82544833    21855.389    3.1834218    27.958863 
    5760    1.1217894   -1314.0574   -5.5475224    21859.291    3.1828534    27.960528 
    5770    1.1224923    -1314.088    -9.999946    21861.919    3.1824709    27.961648 
    5780    1.1234163   -1314.1193   -11.034981    21862.271    3.1824196    27.961798 
    5790    1.1245741   -1314.2006   -8.5912451    21860.106    3.1827348    27.960875 
    5800    1.1258115   -1314.2331   -2.9478869    21856.018    3.1833301    27.959132 
    5810     1.126988   -1314.2654    3.6660644    21851.292    3.1840186    27.957116 
    5820    1.1279772   -1314.2973    8.9922648    21847.426     3.184582    27.955468 
    5830    1.1286632    -1314.329    11.216444    21845.615     3.184846    27.954695 
    5840    1.1289585   -1314.3607    9.5955076    21846.348    3.1847391    27.955008 
    5850    1.1288139   -1314.3921    4.7117554    21849.244    3.1843171    27.956243 
    5860     1.128218   -1314.4227   -1.7395747    21853.186    3.1837426    27.957924 
    5870    1.1271866   -1314.4524   -7.5466931    21856.714    3.1832288    27.959428 
    5880    1.1257442   -1314.4815   -10.741137    21858.517    3.1829662    27.960197 
    5890     1.123907   -1314.5103   -10.257554    21857.884    3.1830584    27.959927 
    5900      1.12167   -1314.5386   -6.2811087     21854.94    3.1834872    27.958672 
    5910    1.1190058   -1314.5661  -0.17850659    21850.598    3.1841197     27.95682 
    5920     1.115873   -1314.5923    5.9637376    21846.247    3.1847539    27.954965 
    5930     1.112232   -1314.6174    10.048171    21843.271    3.1851878    27.953695 
    5940    1.1080631   -1314.6416     10.68749    21842.583    3.1852882    27.953402 
    5950    1.1033787   -1314.6651    7.6841029    21844.311    3.1850361    27.954139 
    5960    1.0982263   -1314.6875    2.0922235    21847.764    3.1845328    27.955612 
    5970    1.0926811   -1314.7085   -4.1586542     21851.67    3.1839636    27.957277 
    5980    1.0868295   -1314.7284   -8.9359394    21854.614    3.1835346    27.958533 
    5990    1.0807514   -1314.7475   -10.629479    21855.524    3.1834021    27.958921 
    6000    1.0745055    -1314.766   -8.6861244     21854.03    3.1836198    27.958284 
    6010    1.0681228   -1314.7838   -3.7859773    21850.585    3.1841216    27.956815 
    6020    1.0616112   -1314.8005     2.390603    21846.311    3.1847445    27.954992 
    6030    1.0549675   -1314.8159     7.731527    21842.606    3.1852847    27.953412 
    6040    1.0481934   -1314.8303    10.414216    21840.671     3.185567    27.952586 
    6050    1.0413101   -1314.8442    9.5343218    21841.098    3.1855046    27.952768 
    6060    1.0343648   -1314.8572    5.4164545    21843.675    3.1851289    27.953867 
    6070    1.0274283   -1314.8693  -0.50729782    21847.459    3.1845772    27.955482 
    6080    1.0205845   -1314.8803   -6.2029326    21851.107    3.1840456    27.957037 
    6090    1.0139146   -1314.8905   -9.7363294    21853.333    3.1837212    27.957987 
    6100    1.0074828   -1314.9004   -9.9250345    21853.349     3.183719    27.957993 
    6110    1.0013281     -1314.91   -6.7267938    21851.125    3.1840429    27.957045 
    6120    0.9954634   -1314.9189   -1.2461748    21847.399    3.1845859    27.955456 
    6130   0.98988438   -1314.9269    4.6400026    21843.419    3.1851662    27.953758 
    6140   0.98458287   -1314.9341    8.9198789    21840.513    3.1855901    27.952518 
    6150   0.97956136   -1314.9408    10.136725    21839.638    3.1857176    27.952145 
    6160   0.97484323   -1314.9471    7.8919134    21841.056    3.1855108     27.95275 
    6170   0.97047544    -1314.953    2.9779427    21844.247    3.1850455    27.954112 
    6180   0.96652292    -1314.958    -2.906246    21848.091     3.184485    27.955751 
    6190   0.96305671   -1314.9624   -7.7491506    21851.257    3.1840236    27.957102 
    6200    0.9601402   -1314.9664    -9.914158    21852.656    3.1838199    27.957698 
    6210   0.95781788   -1314.9704   -8.6859857    21851.808    3.1839434    27.957337 
    6220   0.95611032   -1314.9743   -4.5020647    21849.007    3.1843515    27.956142 
    6230   0.95501673   -1314.9776    1.1999099     21845.21     3.184905    27.954522 
    6240   0.95452387   -1314.9803    6.4689567    21841.711    3.1854153     27.95303 
    6250   0.95461785   -1314.9825    9.5059997    21839.694    3.1857095    27.952169 
    6260   0.95529461   -1314.9846    9.2831619    21839.836    3.1856888     27.95223 
    6270    0.9565649   -1314.9865    5.8974798    21842.071    3.1853628    27.953183 
    6280   0.95845157   -1314.9881   0.52982706    21845.624    3.1848448    27.954699 
    6290   0.96097972    -1314.989   -4.9733156    21849.275    3.1843125    27.956256 
    6300   0.96416256   -1314.9897    -8.739243    21851.783     3.183947    27.957326 
    6310   0.96798733   -1314.9904   -9.5031161    21852.304    3.1838711    27.957548 
    6320   0.97240586   -1314.9913   -7.0262626    21850.678    3.1841081    27.956854 
    6330   0.97733279   -1314.9921   -2.1686318    21847.477    3.1845746    27.955489 
    6340   0.98265221   -1314.9924    3.4042786     21843.81    3.1851092    27.953925 
    6350   0.98823095   -1314.9924    7.7866934    21840.936    3.1855283    27.952699 
    6360   0.99393459   -1314.9923    9.4850308    21839.838    3.1856884    27.952231 
    6370   0.99964139   -1314.9923    7.9328459    21840.888    3.1855354    27.952678 
    6380    1.0052502   -1314.9922    3.6829608    21843.721    3.1851222    27.953887 
    6390    1.0106799   -1314.9917   -1.7927923    21847.369    3.1845904    27.955443 
    6400    1.0158626    -1314.991   -6.6194875    21850.591    3.1841208    27.956817 
    6410    1.0207318   -1314.9902   -9.1623273      21852.3    3.1838717    27.957546 
    6420    1.0252123   -1314.9897   -8.5752143    21851.931    3.1839255    27.957389 
    6430    1.0292151   -1314.9894   -5.0772215    21849.631    3.1842607    27.956408 
    6440    1.0326387    -1314.989   0.12700685      21846.2    3.1847607    27.954945 
    6450    1.0353791   -1314.9883    5.2559421    21842.823    3.1852532    27.953504 
    6460    1.0373424   -1314.9874    8.5577873    21840.654    3.1855695    27.952579 
    6470    1.0384594   -1314.9866    8.9122618     21840.43    3.1856022    27.952483 
    6480    1.0386943   -1314.9858     6.216281    21842.218    3.1853413    27.953246 
    6490    1.0380472   -1314.9849    1.4136427    21845.399    3.1848775    27.954603 
    6500    1.0365487   -1314.9836    -3.840291    21848.881    3.1843699    27.956088 
    6510    1.0342493   -1314.9821   -7.7534836    21851.476    3.1839918    27.957195 
    6520    1.0312077   -1314.9808   -9.0065491    21852.306    3.1838708    27.957549 
    6530    1.0274822   -1314.9796   -7.1916258    21851.099    3.1840467    27.957034 
    6540     1.023128   -1314.9785   -2.9421029    21848.278    3.1844579    27.955831 
    6550    1.0182009   -1314.9771    2.2847117    21844.812    3.1849631    27.954352 
    6560    1.0127658   -1314.9754    6.7021491    21841.885    3.1853899    27.953104 
    6570    1.0069061   -1314.9734    8.8047729     21840.49    3.1855933    27.952509 
    6580    1.0007289   -1314.9714    7.8866261    21841.091    3.1855057    27.952765 
    6590   0.99436533   -1314.9693    4.2823954    21843.469     3.185159    27.953779 
    6600   0.98796257   -1314.9668  -0.75587322    21846.799    3.1846734      27.9552 
    6610    0.9816712   -1314.9638   -5.4987551     21849.94    3.1842156     27.95654 
    6620   0.97563083   -1314.9607   -8.3348119    21851.822    3.1839414    27.957342 
    6630   0.96995841   -1314.9576   -8.3138996    21851.812    3.1839428    27.957338 
    6640   0.96474258   -1314.9545     -5.46016    21849.927    3.1842175    27.956534 
    6650   0.96004552   -1314.9511  -0.75785922    21846.823      3.18467     27.95521 
    6660   0.95591133   -1314.9473    4.1833005    21843.569    3.1851444    27.953822 
    6670    0.9523779    -1314.943    7.6758078     21841.28    3.1854781    27.952846 
    6680   0.94948823   -1314.9384    8.5330392    21840.739     3.185557    27.952615 
    6690   0.94729671   -1314.9336    6.4777507    21842.127    3.1853546    27.953207 
    6700    0.9458678   -1314.9285    2.2332753    21844.969    3.1849402     27.95442 
    6710   0.94526611   -1314.9228    -2.734526      21848.3    3.1844546     27.95584 
    6720   0.94553984   -1314.9166   -6.7277486    21850.995    3.1840619     27.95699 
    6730   0.94670111   -1314.9102   -8.3960438    21852.157    3.1838926    27.957485 
    6740   0.94870831   -1314.9036   -7.1881922    21851.417    3.1840004     27.95717 
    6750   0.95145565   -1314.8967   -3.5307879    21849.061    3.1843438    27.956165 
    6760   0.95477426   -1314.8893    1.3198651    21845.924     3.184801    27.954827 
    6770   0.95844681   -1314.8812    5.7043382    21843.105    3.1852119    27.953625 
    6780   0.96223367   -1314.8726    8.1264366    21841.593    3.1854325    27.952979 
    6790   0.96590451   -1314.8635    7.7675661    21841.924    3.1853842    27.953121 
    6800   0.96926649   -1314.8541     4.767378    21844.008    3.1850804    27.954009 
    6810   0.97218123    -1314.844   0.16933846    21847.156    3.1846214    27.955352 
    6820   0.97456712   -1314.8333   -4.4468262    21850.325    3.1841595    27.956704 
    6830   0.97638955   -1314.8219   -7.5105783    21852.473    3.1838465     27.95762 
    6840   0.97764497   -1314.8104   -7.9922924    21852.915    3.1837822    27.957808 
    6850   0.97834619   -1314.7986   -5.7445954     21851.55     3.183981    27.957226 
    6860   0.97851346   -1314.7864   -1.5460478    21848.898    3.1843675    27.956095 
    6870   0.97817319   -1314.7736    3.1644482    21845.915    3.1848023    27.954823 
    6880   0.97736213   -1314.7603    6.7768309    21843.666    3.1851302    27.953864 
    6890   0.97613339   -1314.7466    8.0610571    21842.961    3.1852331    27.953563 
    6900   0.97455998   -1314.7328    6.5902472    21844.079    3.1850699     27.95404 
    6910   0.97273284   -1314.7187    2.8845987     21846.68    3.1846907    27.955149 
    6920   0.97075305   -1314.7041   -1.7752851    21849.919    3.1842187    27.956531 
    6930   0.96871978   -1314.6893   -5.7953415     21852.74    3.1838077    27.957734 
    6940   0.96671781   -1314.6743   -7.8139613    21854.237    3.1835895    27.958372 
    6950   0.96480814   -1314.6596    -7.159359    21853.962    3.1836296    27.958255 
    6960   0.96302467   -1314.6449   -4.0697346    21852.073    3.1839048    27.957449 
    6970   0.96137763   -1314.6302    0.3915554    21849.278    3.1843121    27.956257 
    6980   0.95986268   -1314.6153     4.697327    21846.589     3.184704    27.955111 
    6990    0.9584724   -1314.6004    7.3770657    21844.978    3.1849389    27.954423 
    7000    0.9572067   -1314.5857    7.5216249    21845.042    3.1849295    27.954451 
    7010   0.95607891   -1314.5713    5.0953616    21846.805    3.1846726    27.955202 
    7020   0.95511586    -1314.557   0.94352266    21849.709    3.1842493    27.956441 
    7030   0.95435267   -1314.5427   -3.5062008    21852.811    3.1837973    27.957764 
    7040   0.95382433   -1314.5287   -6.7378526    21855.105    3.1834631    27.958742 
    7050   0.95355743   -1314.5152   -7.6623231    21855.866    3.1833523    27.959067 
    7060   0.95356511   -1314.5023   -5.9803476    21854.892    3.1834941    27.958652 
    7070   0.95384676   -1314.4899   -2.2776994    21852.575    3.1838317    27.957663 
    7080   0.95439281   -1314.4778    2.1755662    21849.757    3.1842422    27.956462 
    7090   0.95519262    -1314.466    5.8566913    21847.449    3.1845787    27.955477 
    7100   0.95624284   -1314.4547    7.5106708    21846.477    3.1847204    27.955063 
    7110   0.95755305   -1314.4441    6.5815985    21847.206    3.1846141    27.955374 
    7120    0.9591468   -1314.4341    3.4019457    21849.419    3.1842916    27.956317 
    7130   0.96105719   -1314.4246  -0.92805384    21852.389    3.1838588    27.957584 
    7140   0.96331843   -1314.4155   -4.9251343    21855.134    3.1834589    27.958755 
    7150   0.96595588   -1314.4072   -7.2324348    21856.753    3.1832231    27.959445 
    7160   0.96897764   -1314.3997   -7.0771547     21856.73    3.1832264    27.959435 
    7170    0.9723702   -1314.3931   -4.5258651    21855.109    3.1834624    27.958744 
    7180   0.97609942   -1314.3872  -0.45757177    21852.477     3.183846    27.957622 
    7190   0.98011655   -1314.3818    3.7353011    21849.756    3.1842424    27.956461 
    7200   0.98436707    -1314.377    6.6209264    21847.896    3.1845135    27.955668 
    7210   0.98879979   -1314.3729    7.2187551    21847.542    3.1845652    27.955517 
    7220   0.99337298   -1314.3696     5.336398     21848.82    3.1843788    27.956062 
    7230   0.99805573   -1314.3669    1.6322758    21851.298    3.1840178    27.957119 
    7240    1.0028238   -1314.3648   -2.6175015    21854.132    3.1836048    27.958328 
    7250    1.0076519   -1314.3631   -5.9618147    21856.362      3.18328    27.959278 
    7260    1.0125041   -1314.3622   -7.2692826    21857.234     3.183153     27.95965 
    7270    1.0173267   -1314.3621   -6.1071963     21856.46    3.1832657     27.95932 
    7280    1.0220448   -1314.3626   -2.8823151    21854.311    3.1835787    27.958404 
    7290    1.0265656   -1314.3636    1.2995534    21851.524    3.1839847    27.957215 
    7300    1.0307849   -1314.3649     5.009226    21849.047    3.1843457    27.956159 
    7310    1.0345975   -1314.3666    6.9819294    21847.716    3.1845397    27.955591 
    7320    1.0379066   -1314.3688    6.5515945     21847.97    3.1845028    27.955699 
    7330    1.0406292   -1314.3713    3.8787767    21849.702    3.1842503    27.956438 
    7340    1.0426965    -1314.374    -0.109446    21852.304    3.1838712    27.957548 
    7350    1.0440489   -1314.3769   -4.0442551    21854.868    3.1834976    27.958641 
    7360     1.044629     -1314.38   -6.5864759    21856.507    3.1832588     27.95934 
    7370    1.0443753   -1314.3834    -6.880016    21856.651    3.1832379    27.959402 
    7380    1.0432217   -1314.3872   -4.8365211    21855.241    3.1834433      27.9588 
    7390    1.0411058   -1314.3912   -1.1608843    21852.746    3.1838067    27.957737 
    7400    1.0379861   -1314.3952    2.8889923    21850.004    3.1842063    27.956567 
    7410    1.0338665    -1314.399    5.9301077     21847.93    3.1845085    27.955683 
    7420    1.0288216    -1314.403    6.9277546    21847.207    3.1846139    27.955374 
    7430    1.0230142   -1314.4071     5.551144    21848.054    3.1844906    27.955735 
    7440    1.0166953   -1314.4112    2.2848117    21850.151    3.1841849     27.95663 
    7450    1.0101819   -1314.4151   -1.7436413    21852.755    3.1838054     27.95774 
    7460    1.0038139    -1314.419   -5.1555833    21854.954    3.1834851    27.958678 
    7470   0.99790266   -1314.4228   -6.7929697    21855.979    3.1833358    27.959115 
    7480    0.9926873   -1314.4269   -6.1080208    21855.465    3.1834106    27.958896 
    7490   0.98830983    -1314.431    -3.343643    21853.575     3.183686     27.95809 
    7500   0.98481477    -1314.435   0.55172291    21850.941    3.1840698    27.956966 
    7510   0.98216712   -1314.4387    4.2464564    21848.445    3.1844335    27.955902 
    7520   0.98027983   -1314.4422    6.4798462    21846.923    3.1846553    27.955253 
    7530   0.97904147   -1314.4454    6.4946948    21846.873    3.1846627    27.955232 
    7540   0.97833746   -1314.4485    4.2971722    21848.291    3.1844559    27.955836 
    7550   0.97806203   -1314.4512   0.65104854    21850.675    3.1841086    27.956853 
    7560   0.97812097   -1314.4533   -3.1904065    21853.196    3.1837412    27.957928 
    7570   0.97842789   -1314.4549   -5.9170937    21854.986    3.1834805    27.958691 
    7580   0.97889783   -1314.4561   -6.6072756    21855.431    3.1834156    27.958882 
    7590   0.97944226    -1314.457   -5.0356998    21854.383    3.1835682    27.958435 
    7600   0.97996814   -1314.4572    -1.745644    21852.204    3.1838857    27.957505 
    7610   0.98038224   -1314.4566    2.1367582    21849.642     3.184259    27.956413 
    7620   0.98059957   -1314.4552    5.2853783    21847.577      3.18456    27.955532 
    7630   0.98055325   -1314.4529    6.6274541    21846.717    3.1846853    27.955165 
    7640   0.98020254   -1314.4499    5.7121703     21847.36    3.1845917    27.955439 
    7650   0.97953612    -1314.446     2.864168    21849.291    3.1843102    27.956263 
    7660   0.97856962   -1314.4411  -0.93271376    21851.862    3.1839355    27.957359 
    7670   0.97733814   -1314.4351   -4.3780995    21854.213    3.1835931    27.958362 
    7680   0.97588623   -1314.4283   -6.3010926    21855.565    3.1833961    27.958939 
    7690   0.97425882   -1314.4207   -6.0556998    21855.489    3.1834072    27.958906 
    7700   0.97249546   -1314.4124   -3.7351511    21854.046    3.1836174    27.958291 
    7710   0.97062916   -1314.4032  -0.13729745    21851.767    3.1839494    27.957319 
    7720   0.96868881   -1314.3931    3.5066966    21849.469    3.1842842    27.956339 
    7730   0.96670251   -1314.3821    5.9517092    21847.976    3.1845019    27.955702 
    7740   0.96469846   -1314.3703    6.3653826    21847.835    3.1845224    27.955642 
    7750   0.96270045    -1314.358    4.6140166    21849.134     3.184333    27.956196 
    7760   0.96071762   -1314.3451    1.3058534    21851.472    3.1839924    27.957193 
    7770   0.95873085   -1314.3315   -2.4229421    21854.096      3.18361    27.958312 
    7780   0.95668178   -1314.3175   -5.3013428    21856.163     3.183309    27.959194 
    7790   0.95447237   -1314.3032   -6.3566315    21857.024    3.1831835    27.959561 
    7800   0.95198187    -1314.289   -5.2408339    21856.446    3.1832678    27.959314 
    7810   0.94910256   -1314.2748   -2.3444119    21854.687     3.183524    27.958564 
    7820   0.94578603   -1314.2605    1.3379953    21852.407    3.1838562    27.957592 
    7830   0.94208174   -1314.2463    4.5457124     21850.44    3.1841427    27.956753 
    7840   0.93814862   -1314.2324    6.1825131    21849.511    3.1842782    27.956357 
    7850   0.93423372   -1314.2191    5.6929608    21849.983    3.1842094    27.956558 
    7860    0.9306314   -1314.2063    3.2524297    21851.741    3.1839532    27.957308 
    7870   0.92764246   -1314.1942  -0.29689084    21854.228    3.1835909    27.958368 
    7880   0.92554383   -1314.1829   -3.7397815    21856.638    3.1832397    27.959396 
    7890   0.92456841   -1314.1725   -5.9057298    21858.195    3.1830131     27.96006 
    7900   0.92489186   -1314.1633    -6.065471    21858.411    3.1829816    27.960152 
    7910   0.92662417   -1314.1554   -4.1742429    21857.255    3.1831499    27.959659 
    7920   0.92980627   -1314.1488   -0.8839055    21855.161    3.1834549    27.958766 
    7930   0.93441247   -1314.1434    2.6789019    21852.878    3.1837876    27.957793 
    7940   0.94035953   -1314.1393    5.2961109     21851.21    3.1840306    27.957081 
    7950   0.94752172   -1314.1365    6.0751702    21850.746    3.1840981    27.956884 
    7960   0.95574932   -1314.1352    4.7557557    21851.659    3.1839652    27.957273 
    7970   0.96488638   -1314.1352     1.797545    21853.644     3.183676    27.958119 
    7980   0.97478298   -1314.1366    -1.781878    21856.028    3.1833287    27.959136 
    7990   0.98529947   -1314.1393   -4.7595885    21858.001    3.1830413    27.959977 
    8000   0.99630291   -1314.1434   -6.1251901    21858.892    3.1829116    27.960357 
    8010    1.0076588    -1314.149    -5.421229    21858.394     3.182984    27.960145 
    8020    1.0192223    -1314.156   -2.8945374    21856.674    3.1832346    27.959411 
    8030    1.0308321   -1314.1643    0.5892327    21854.307    3.1835794    27.958402 
    8040    1.0423093   -1314.1736    3.8395996    21852.083    3.1839033    27.957454 
    8050    1.0534593    -1314.184    5.7471548    21850.737    3.1840995     27.95688 
    8060    1.0640761   -1314.1955    5.6641124    21850.696    3.1841054    27.956862 
    8070    1.0739463   -1314.2081     3.626616    21851.937    3.1839246    27.957391 
    8080    1.0828504   -1314.2216   0.33963517    21853.994    3.1836249    27.958269 
    8090    1.0905651   -1314.2359   -3.0692407    21856.122     3.183315    27.959176 
    8100    1.0968702    -1314.251   -5.4381592    21857.549    3.1831072    27.959784 
    8110    1.1015698   -1314.2671     -5.96572    21857.742    3.1830791    27.959867 
    8120    1.1045377   -1314.2842   -4.4793967    21856.586    3.1832474    27.959374 
    8130    1.1057885   -1314.3021   -1.4908769    21854.423    3.1835625    27.958451 
    8140    1.1055572   -1314.3206    1.9784887    21851.932    3.1839254    27.957389 
    8150     1.104336   -1314.3397    4.7449608    21849.898    3.1842217    27.956522 
    8160    1.1028104   -1314.3595    5.8669281    21848.946    3.1843604    27.956116 
    8170    1.1016847   -1314.3801    4.9679859    21849.325    3.1843053    27.956277 
    8180    1.1014794   -1314.4013     2.364849    21850.826    3.1840865    27.956918 
    8190    1.1024161   -1314.4231   -1.0450551    21852.859    3.1837903    27.957784 
    8200    1.1044358   -1314.4454   -4.0948878    21854.649    3.1835295    27.958548 
    8210    1.1072963   -1314.4684   -5.7477892    21855.509    3.1834043    27.958915 
    8220    1.1106771   -1314.4921   -5.4471136    21855.067    3.1834686    27.958726 
    8230    1.1142527   -1314.5164    -3.301698    21853.396     3.183712    27.958014 
    8240    1.1177345   -1314.5411 -0.046974091    21850.986    3.1840631    27.956986 
    8250    1.1208951   -1314.5661    3.2048671    21848.576    3.1844144    27.955958 
    8260    1.1235808   -1314.5913    5.3437615      21846.9    3.1846588    27.955243 
    8270    1.1257148   -1314.6167    5.6422882    21846.438     3.184726    27.955046 
    8280    1.1272893   -1314.6421    4.0056994    21847.255     3.184607    27.955394 
    8290    1.1283447   -1314.6675    1.0026435    21848.975    3.1843562    27.956128 
    8300     1.128944   -1314.6927   -2.3338381    21850.919     3.184073    27.956957 
    8310    1.1291447   -1314.7177   -4.8629582     21852.33    3.1838674    27.957559 
    8320    1.1289795   -1314.7424   -5.7250674    21852.638    3.1838225     27.95769 
    8330    1.1284469   -1314.7669   -4.6309895    21851.653     3.183966     27.95727 
    8340     1.127513   -1314.7909   -1.9573403    21849.625    3.1842615    27.956406 
    8350    1.1261222   -1314.8144    1.3821395    21847.164    3.1846202    27.955356 
    8360    1.1242127    -1314.837    4.2470879    21845.025     3.184932    27.954443 
    8370    1.1217315   -1314.8589     5.660107    21843.854    3.1851027    27.953944 
    8380    1.1186474   -1314.8801    5.1426134    21843.968    3.1850862    27.953992 
    8390    1.1149564   -1314.9003    2.8790242    21845.245       3.1849    27.954537 
    8400    1.1106808   -1314.9196  -0.34920197    21847.171    3.1846192    27.955359 
    8410    1.1058619   -1314.9378   -3.4352236    21849.013    3.1843507    27.956145 
    8420    1.1005496    -1314.955   -5.3269623    21850.076    3.1841958    27.956598 
    8430    1.0947918   -1314.9713   -5.3840022    21849.932    3.1842167    27.956537 
    8440    1.0886282   -1314.9867   -3.5920971    21848.574    3.1844147    27.955957 
    8450    1.0820885   -1315.0011   -0.5660806     21846.41    3.1847301    27.955034 
    8460    1.0751975   -1315.0143    2.6590928    21844.127     3.185063     27.95406 
    8470    1.0679819   -1315.0265    4.9807236    21842.453    3.1853071    27.953346 
    8480    1.0604794   -1315.0376     5.606172    21841.911    3.1853861    27.953115 
    8490     1.052744   -1315.0478    4.3255991    21842.639    3.1852799    27.953426 
    8500    1.0448469   -1315.0571    1.5830519    21844.344    3.1850313    27.954153 
    8510    1.0368724   -1315.0654   -1.6791835    21846.404     3.184731    27.955032 
    8520    1.0289091   -1315.0728   -4.3464431    21848.081    3.1844866    27.955747 
    8530    1.0210417   -1315.0794   -5.5126115    21848.771    3.1843859    27.956041 
    8540    1.0133429   -1315.0855   -4.7860787    21848.215     3.184467    27.955804 
    8550    1.0058708    -1315.091   -2.4199974    21846.581    3.1847052    27.955107 
    8560   0.99867009   -1315.0959   0.77467259    21844.406    3.1850224    27.954179 
    8570   0.99177824      -1315.1    3.7046894    21842.413    3.1853129    27.953329 
    8580   0.98523256   -1315.1037    5.3677129    21841.265    3.1854803     27.95284 
    8590   0.97907679   -1315.1069    5.1965814    21841.335    3.1854702    27.952869 
    8600   0.97336438   -1315.1097    3.2543783     21842.58    3.1852886      27.9534 
    8610   0.96815738   -1315.1121     0.210866    21844.558    3.1850001    27.954244 
    8620   0.96352148    -1315.114   -2.8906603    21846.581    3.1847053    27.955107 
    8630   0.95951865   -1315.1156   -4.9924046    21847.946    3.1845063    27.955689 
    8640   0.95620001   -1315.1171   -5.3818475     21848.18    3.1844721    27.955789 
    8650   0.95360101   -1315.1184   -3.9312661    21847.199    3.1846152     27.95537 
    8660   0.95174019   -1315.1195   -1.1391089    21845.332    3.1848872    27.954574 
    8670   0.95062179   -1315.1203     2.039534    21843.215    3.1851959    27.953671 
    8680   0.95024071   -1315.1207    4.5178484    21841.566    3.1854364    27.952968 
    8690   0.95058774   -1315.1209    5.4492767    21840.944    3.1855272    27.952702 
    8700    0.9516527   -1315.1208    4.5187755    21841.555     3.185438    27.952963 
    8710   0.95342348   -1315.1203    2.0506012    21843.188    3.1851999     27.95366 
    8720   0.95588066   -1315.1195    -1.105681    21845.282    3.1848946    27.954553 
    8730   0.95898856   -1315.1181   -3.8694551    21847.122    3.1846263    27.955338 
    8740   0.96268521   -1315.1164   -5.2991745    21848.084    3.1844861    27.955748 
    8750    0.9668745   -1315.1143    -4.911179    21847.848    3.1845205    27.955647 
    8760   0.97142355   -1315.1118   -2.8414739    21846.503    3.1847166    27.955074 
    8770   0.97616721   -1315.1086   0.20156065    21844.521    3.1850056    27.954228 
    8780   0.98091949   -1315.1048    3.1777335     21842.59    3.1852871    27.953405 
    8790   0.98548994   -1315.1002    5.0697176    21841.385    3.1854629     27.95289 
    8800   0.98970094   -1315.0949    5.2321559    21841.329     3.185471    27.952867 
    8810   0.99340179   -1315.0889    3.6138298    21842.458    3.1853064    27.953348 
    8820   0.99647662    -1315.082    0.7739934    21844.402    3.1850229    27.954178 
    8830   0.99884508   -1315.0742   -2.3125377    21846.518    3.1847143     27.95508 
    8840    1.0004573   -1315.0655   -4.5914015    21848.109    3.1844825    27.955759 
    8850    1.0012861    -1315.056   -5.2881003    21848.659    3.1844023    27.955994 
    8860    1.0013203   -1315.0458   -4.1691144    21848.014    3.1844963    27.955718 
    8870    1.0005606   -1315.0347   -1.6192055     21846.43    3.1847273    27.955042 
    8880   0.99902087   -1315.0227    1.4895816    21844.484    3.1850109    27.954213 
    8890   0.99673177   -1315.0097     4.094305    21842.882    3.1852446    27.953529 
    8900   0.99374553   -1314.9959    5.3044953     21842.21    3.1853425    27.953242 
    8910   0.99013866   -1314.9813    4.7083609     21842.74    3.1852652    27.953469 
    8920   0.98601031   -1314.9659    2.5142821    21844.335    3.1850327    27.954149 
    8930   0.98147568   -1314.9496  -0.52277298    21846.496    3.1847175    27.955071 
    8940    0.9766553   -1314.9326   -3.3629989    21848.537    3.1844201    27.955941 
    8950   0.97166276   -1314.9149   -5.0384883    21849.815    3.1842339    27.956486 
    8960   0.96659351   -1314.8966   -4.9816882    21849.951     3.184214    27.956545 
    8970   0.96151714   -1314.8778   -3.2159131    21848.963    3.1843581    27.956123 
    8980    0.9564744   -1314.8584  -0.34620677     21847.25    3.1846077    27.955392 
[...]
   37860    117.96381   -1040.0534    10074.723     19304.14     3.604145    26.825644 
   37870    118.59405   -1039.9084    10098.558    19297.081    3.6054634    26.822374 
   37880    119.10686   -1039.6507    10123.835    19290.212    3.6067473    26.819191 
   37890    119.52034   -1039.1821    10150.783     19283.57    3.6079896    26.816112 
   37900    119.87895   -1038.6609    10177.619    19277.194    3.6091829    26.813156 
   37910    120.23206   -1038.1766    10203.009    19271.123      3.61032    26.810341 
   37920    120.61212   -1037.8176    10225.763    19265.393    3.6113938    26.807684 
   37930    121.02706   -1037.6355    10245.221    19260.035    3.6123984    26.805198 
   37940    121.45622   -1037.5904    10261.665    19255.078    3.6133284    26.802898 
   37950     121.8582    -1037.685    10275.348    19250.542    3.6141798    26.800794 
   37960    122.17322   -1037.5988    10288.922    19246.446    3.6149489    26.798893 
   37970    122.34302   -1037.3798    10302.519    19242.809    3.6156323    26.797204 
   37980    122.31935   -1037.1363    10315.786    19239.647    3.6162265    26.795736 
   37990    122.07129   -1036.7522    10329.806    19236.978    3.6167282    26.794497 
   38000    121.59009   -1036.0404    10345.961    19234.821    3.6171338    26.793496 
   38010    120.89259   -1035.0431    10363.805    19233.196    3.6174393    26.792742 
   38020    120.01889   -1034.0049    10381.267    19232.128    3.6176403    26.792245 
   38030    119.02562   -1032.7982    10398.704    19231.638    3.6177324    26.792018 
   38040    117.97988   -1031.7267    10413.375    19231.751    3.6177112     26.79207 
   38050    116.94755   -1030.7715     10424.78    19232.484    3.6175732    26.792411 
   38060    115.98915   -1030.0034    10431.852    19233.853    3.6173159    26.793046 
   38070    115.15948   -1029.3108     10434.89    19235.863    3.6169378     26.79398 
   38080    114.50961   -1028.9665    10431.587    19238.517    3.6164388    26.795212 
   38090    114.09273   -1029.0665    10420.934    19241.806    3.6158206    26.796739 
   38100     113.9739   -1029.4671    10403.667    19245.712    3.6150868    26.798552 
   38110    114.22778   -1030.3186     10378.56    19250.206    3.6142429    26.800638 
   38120    114.92785   -1031.6864    10345.124    19255.247    3.6132968    26.802977 
   38130    116.13059   -1033.4431    10304.422    19260.783    3.6122582    26.805545 
   38140    117.85155   -1035.8455    10255.063     19266.75    3.6111395    26.808313 
   38150    120.04518   -1038.4706    10200.614    19273.073    3.6099547    26.811245 
   38160    122.59706   -1041.4438    10141.014    19279.669    3.6087197    26.814304 
   38170    125.33382   -1044.4848    10079.228    19286.447    3.6074515    26.817445 
   38180    128.04574   -1047.6757    10015.873    19293.312    3.6061678    26.820627 
   38190    130.51599   -1050.6609    9954.7697    19300.169    3.6048865    26.823804 
   38200    132.54999   -1053.3329    9898.0616    19306.927    3.6036247    26.826935 
   38210    133.98994   -1055.5291    9848.1784      19313.5    3.6023983    26.829979 
   38220    134.72855   -1056.9103     9808.532    19319.815    3.6012209    26.832902 
   38230    134.70788   -1057.6773    9778.3689     19325.81    3.6001037    26.835678 
   38240    133.92708   -1057.7493    9758.4554    19331.443    3.5990548    26.838285 
   38250    132.44187   -1057.3995    9746.6694    19336.683    3.5980794    26.840709 
   38260     130.3602   -1056.2599    9745.0129    19341.515    3.5971804    26.842945 
   38270    127.83212   -1054.8502    9749.0678    19345.939    3.5963579    26.844991 
   38280    125.04587   -1053.0782    9758.5614    19349.961    3.5956104    26.846852 
   38290    122.20093   -1051.2467    9770.3953    19353.597    3.5949348    26.848533 
   38300    119.48796   -1049.4109    9783.1844    19356.867    3.5943275    26.850045 
   38310    117.06652    -1047.882    9793.8174    19359.792    3.5937845    26.851398 
   38320    115.05065   -1046.6739    9801.3982    19362.389    3.5933024    26.852598 
   38330     113.5042   -1045.6378    9806.3813    19364.672    3.5928788    26.853654 
   38340    112.45043   -1045.0796    9806.3421    19366.649    3.5925121    26.854567 
   38350    111.88052   -1044.8759    9802.1124    19368.321    3.5922019     26.85534 
   38360    111.76449    -1045.048    9793.7579    19369.685     3.591949     26.85597 
   38370    112.05846   -1045.5971    9781.6784    19370.728    3.5917556    26.856452 
   38380     112.7071   -1046.3357     9767.739    19371.433    3.5916248    26.856779 
   38390    113.64555   -1047.4564    9751.2845    19371.782    3.5915601     26.85694 
   38400    114.79827   -1048.5241    9736.0821    19371.752    3.5915656    26.856926 
   38410    116.08469   -1049.5675    9722.6887    19371.322    3.5916455    26.856727 
   38420    117.42505   -1050.6452    9711.3829    19370.473    3.5918029    26.856335 
   38430    118.74275   -1051.4814    9704.6387     19369.19    3.5920407    26.855742 
   38440    119.97176    -1052.137    9702.4404    19367.467    3.5923604    26.854945 
   38450    121.05726   -1052.5429    9705.5255    19365.301    3.5927622    26.853944 
   38460    121.95641   -1052.6454    9714.3817      19362.7    3.5932447    26.852742 
   38470    122.63941   -1052.4544    9728.9135    19359.681    3.5938052    26.851346 
   38480     123.0908   -1051.7986    9750.1316    19356.267     3.594439    26.849768 
   38490    123.31328   -1051.1163    9774.6462    19352.492      3.59514    26.848022 
   38500    123.32978   -1049.9603    9805.0714    19348.398    3.5959009    26.846129 
   38510    123.17799   -1048.6121    9838.8002     19344.03    3.5967127    26.844109 
   38520    122.91098   -1047.1996    9874.2096    19339.443    3.5975659    26.841986 
   38530    122.58261   -1045.9237    9909.1424    19334.689    3.5984504    26.839787 
   38540    122.24594   -1044.5893    9944.3008    19329.825     3.599356    26.837536 
   38550     121.9335   -1043.1444    9979.5549    19324.902    3.6002728    26.835258 
   38560    121.65426   -1041.9447    10012.157    19319.976    3.6011908    26.832977 
   38570    121.39738   -1040.6063    10044.749    19315.096    3.6021007    26.830718 
   38580    121.13587   -1039.5335    10074.632     19310.31    3.6029934    26.828501 
   38590    120.84001   -1038.3899    10104.324    19305.664    3.6038605     26.82635 
   38600    120.48573   -1037.0196    10135.014    19301.202    3.6046937    26.824283 
   38610    120.07023   -1035.7886    10164.108    19296.967    3.6054847    26.822321 
   38620     119.6114   -1034.7488    10191.011    19293.004    3.6062254    26.820484 
   38630    119.14348   -1033.6046    10217.382     19289.35    3.6069084    26.818791 
   38640    118.71414   -1032.5942    10241.111    19286.045    3.6075266    26.817259 
   38650     118.3647   -1031.8451    10260.935    19283.122    3.6080735    26.815904 
   38660    118.11887   -1031.0876    10278.592    19280.608    3.6085439    26.814739 
   38670    117.97185   -1030.7208    10291.418    19278.527    3.6089333    26.813774 
   38680    117.89597   -1030.1516    10303.906    19276.899    3.6092383    26.813019 
   38690    117.84909   -1029.8471     10313.23    19275.737    3.6094558    26.812481 
   38700    117.79615   -1029.5489    10321.593    19275.054    3.6095837    26.812164 
   38710    117.71362   -1029.1392    10330.054     19274.86    3.6096199    26.812074 
   38720    117.59533   -1028.6005    10338.791    19275.167    3.6095625    26.812216 
   38730    117.44776   -1028.0325    10346.972    19275.984    3.6094095    26.812595 
   38740    117.29203   -1027.3857    10354.655    19277.322    3.6091589    26.813216 
   38750    117.16368   -1026.5837    10361.914    19279.191    3.6088092    26.814082 
   38760    117.11323   -1026.1152    10364.706    19281.596     3.608359    26.815197 
   38770    117.20643   -1025.6599    10364.491    19284.541    3.6078079    26.816562 
   38780    117.51557   -1025.5272    10358.243    19288.023    3.6071567    26.818176 
   38790    118.11056   -1025.5151    10346.555     19292.03    3.6064075    26.820033 
   38800    119.03985   -1026.1852    10324.867    19296.542    3.6055642    26.822124 
   38810    120.31808   -1027.5673    10292.688    19301.524    3.6046334    26.824432 
   38820    121.91414   -1029.5092    10251.269    19306.927    3.6036248    26.826935 
   38830    123.74522   -1031.8125    10202.736    19312.685    3.6025503    26.829602 
   38840     125.6775   -1034.4767    10148.365    19318.725     3.601424    26.832398 
   38850    127.53632     -1037.12    10092.493    19324.963    3.6002614    26.835286 
   38860    129.13659   -1039.6599    10037.582    19331.315    3.5990786    26.838225 
   38870    130.30504   -1041.9497    9986.4377    19337.695     3.597891    26.841178 
   38880    130.90904   -1043.5729    9943.3864    19344.029     3.596713    26.844108 
   38890    130.87792   -1044.6086    9908.7663     19350.25    3.5955567    26.846985 
   38900    130.20607   -1045.0442    9882.9506    19356.306    3.5944317    26.849786 
   38910    128.95054   -1044.8168    9866.1261     19362.16     3.593345    26.852492 
   38920    127.22248   -1043.9954    9857.1985    19367.785    3.5923014    26.855092 
   38930    125.16058   -1042.9865    9852.5337    19373.168    3.5913032     26.85758 
   38940     122.9121   -1041.9929    9849.9166    19378.303    3.5903515    26.859953 
   38950    120.61764   -1040.7792     9850.327    19383.187    3.5894469    26.862209 
   38960    118.39337   -1039.5187    9852.0604    19387.822    3.5885888     26.86435 
   38970     116.3302   -1038.3619    9853.6878     19392.21    3.5877767    26.866377 
   38980    114.49963   -1037.4527    9853.8532    19396.355      3.58701    26.868291 
   38990    112.95989   -1036.4728    9854.3458    19400.259    3.5862881    26.870094 
   39000    111.76708    -1035.733    9852.5186    19403.924    3.5856109    26.871785 
   39010    110.96818   -1035.5198    9845.8643    19407.346    3.5849786    26.873365 
   39020    110.59871   -1035.4218    9836.8215    19410.517    3.5843929    26.874829 
   39030    110.67569   -1035.6929      9823.45    19413.425    3.5838561     26.87617 
   39040    111.18776   -1036.4741    9804.8802    19416.048    3.5833719    26.877381 
   39050    112.09234   -1037.4968     9783.356    19418.361    3.5829451    26.878448 
   39060    113.32711   -1038.7642    9759.4475    19420.332    3.5825814    26.879357 
   39070    114.81603   -1040.2935    9733.7462    19421.927    3.5822872    26.880093 
   39080    116.46925   -1041.9195    9708.1427    19423.108    3.5820694    26.880638 
   39090    118.19026   -1043.5743    9683.8691    19423.838    3.5819347    26.880975 
   39100    119.87681    -1045.187    9662.1788    19424.083    3.5818896    26.881088 
   39110    121.42902   -1046.3709    9646.5086    19423.811    3.5819398    26.880962 
   39120    122.75378   -1047.4298    9635.4378        19423    3.5820892    26.880588 
   39130    123.77871   -1048.0973    9631.3711    19421.638    3.5823405     26.87996 
   39140    124.45798   -1048.3037    9635.1287    19419.719    3.5826944    26.879075 
   39150    124.78196   -1048.1413    9646.1371    19417.254    3.5831493    26.877937 
   39160    124.77188   -1047.6375    9663.9823    19414.261    3.5837017    26.876556 
   39170    124.47529   -1046.7262    9688.6469    19410.771     3.584346    26.874946 
   39180    123.95744   -1045.6805    9717.5793    19406.825    3.5850749    26.873124 
   39190    123.29569   -1044.2234     9751.947    19402.469    3.5858797    26.871114 
   39200    122.56747   -1042.5939     9789.292    19397.759    3.5867505    26.868939 
   39210    121.83848    -1041.212    9825.8726    19392.751    3.5876767    26.866626 
   39220    121.17151   -1039.6867    9863.6198    19387.503    3.5886477    26.864203 
   39230    120.62142   -1038.3811     9899.275    19382.075    3.5896528    26.861696 
   39240    120.23313   -1037.3056    9932.0812    19376.522    3.5906816     26.85913 
   39250    120.04374   -1036.6122    9960.3933    19370.894    3.5917248    26.856529 
   39260    120.07782    -1035.998    9985.8544    19365.235    3.5927744    26.853914 
   39270    120.34086   -1035.8004    10005.819    19359.584    3.5938232    26.851301 
   39280    120.81703   -1035.9129    10020.947     19353.97    3.5948655    26.848706 
   39290    121.47195   -1036.4751    10030.445    19348.417    3.5958972    26.846138 
   39300    122.24898   -1037.2275     10036.51    19342.939    3.5969156    26.843604 
   39310     123.0762   -1038.1355    10039.938    19337.545     3.597919    26.841108 
   39320    123.87707    -1038.861    10043.695     19332.24    3.5989064    26.838653 
   39330    124.58227   -1039.6395    10046.708    19327.029    3.5998767    26.836242 
   39340     125.1411   -1040.3362    10050.358    19321.916    3.6008292    26.833875 
   39350    125.52729   -1040.9935    10054.612    19316.908    3.6017628    26.831557 
   39360    125.74153   -1041.3915    10061.098    19312.009    3.6026764    26.829288 
   39370    125.79742   -1041.6667    10068.811    19307.229    3.6035684    26.827074 
   39380    125.71798   -1041.8647    10077.324    19302.578    3.6044367     26.82492 
   39390    125.52824   -1042.0288     10086.25    19298.068     3.605279    26.822831 
   39400    125.24669   -1042.1405    10095.702    19293.713    3.6060929    26.820813 
   39410    124.88346   -1042.0201    10106.983    19289.526    3.6068756    26.818873 
   39420    124.44339   -1042.0217    10117.705    19285.522    3.6076244    26.817017 
   39430    123.93025   -1041.8625    10129.913    19281.717    3.6083363    26.815253 
   39440     123.3473   -1041.4599    10144.182    19278.129     3.609008     26.81359 
   39450    122.70454   -1040.8445    10160.219    19274.777    3.6096355    26.812036 
   39460     122.0137   -1040.1773    10176.689    19271.685    3.6102147    26.810602 
   39470    121.29902   -1039.4443    10193.372    19268.876    3.6107411    26.809299 
   39480    120.59834   -1038.9238    10207.886    19266.372    3.6112102    26.808138 
   39490    119.95892   -1038.2463    10222.272    19264.196    3.6116182    26.807128 
   39500    119.43377   -1037.3471    10236.423    19262.366    3.6119613     26.80628 
   39510    119.06364   -1037.0283    10244.244    19260.901    3.6122359      26.8056 
   39520     118.8668   -1036.9302    10247.962    19259.812    3.6124402    26.805095 
   39530    118.83799   -1037.2976    10245.895    19259.102    3.6125735    26.804765 
   39540    118.94134   -1037.7901    10240.726    19258.766    3.6126365     26.80461 
   39550    119.11893    -1038.256    10233.999    19258.796    3.6126309    26.804623 
   39560     119.3105     -1038.81    10225.442    19259.179    3.6125591    26.804801 
   39570    119.46807   -1039.2401    10216.981    19259.901    3.6124236    26.805136 
   39580    119.56094   -1039.5049    10209.171    19260.947    3.6122273    26.805622 
   39590    119.57671   -1039.8831    10200.149    19262.306    3.6119726    26.806252 
   39600    119.52167    -1040.138    10191.515    19263.961    3.6116623    26.807019 
   39610    119.41322   -1040.3664     10182.43    19265.898    3.6112991    26.807918 
   39620    119.27712   -1040.5283    10172.937    19268.104    3.6108857    26.808941 
   39630    119.14686   -1040.7167    10162.092    19270.562    3.6104252    26.810081 
   39640    119.06129    -1040.983    10149.223    19273.254    3.6099208    26.811329 
   39650     119.0614    -1041.554    10132.453    19276.161    3.6093764    26.812677 
   39660    119.18058   -1042.3264    10112.292    19279.256     3.608797    26.814112 
   39670    119.43651   -1043.2004    10089.384    19282.508    3.6081883     26.81562 
   39680    119.82766   -1044.1979    10063.765    19285.882    3.6075572    26.817184 
   39690    120.32478   -1045.3768    10035.463    19289.338    3.6069108    26.818785 
   39700      120.875   -1046.6897    10005.472    19292.834    3.6062572    26.820406 
   39710    121.40985   -1047.8236    9976.7981    19296.324    3.6056048    26.822023 
   39720    121.85462        -1049    9948.7802    19299.766    3.6049619    26.823617 
   39730    122.13306    -1049.924    9924.3072    19303.117    3.6043361     26.82517 
   39740    122.17824   -1050.6098    9903.9887     19306.34    3.6037343    26.826663 
   39750    121.94257   -1050.7793    9890.2851    19309.407    3.6031619    26.828083 
   39760    121.40074   -1050.6733    9881.7584    19312.297    3.6026227    26.829422 
   39770    120.56073   -1050.1562    9879.2913    19314.998     3.602119    26.830672 
   39780    119.46722   -1049.4052    9881.2703    19317.505    3.6016514    26.831833 
   39790    118.19833   -1048.4628    9886.7557    19319.824    3.6012191    26.832907 
   39800    116.85607   -1047.4443    9894.1373    19321.964    3.6008204    26.833897 
   39810    115.55014   -1046.4204    9902.0669    19323.934    3.6004531     26.83481 
   39820    114.38553   -1045.3782    9909.8524     19325.75     3.600115     26.83565 
   39830    113.44983   -1044.6249    9914.7325    19327.422    3.5998035    26.836424 
   39840    112.80508   -1044.3363    9915.0842    19328.958    3.5995175    26.837135 
   39850    112.48795   -1044.2144    9912.8335    19330.359    3.5992565    26.837783 
   39860     112.5086    -1044.346     9907.459    19331.623    3.5990211    26.838368 
   39870    112.85737   -1044.7703    9898.9718    19332.743    3.5988127    26.838886 
   39880    113.50943   -1045.1918    9889.8471    19333.705    3.5986336    26.839332 
   39890    114.42799   -1045.9694    9878.0456    19334.497    3.5984862    26.839698 
   39900    115.57555   -1046.9561    9865.0406    19335.101    3.5983738    26.839977 
   39910    116.90828   -1047.8136    9853.5678    19335.499    3.5982998    26.840161 
   39920    118.37425   -1048.6012    9843.5412    19335.674    3.5982672    26.840243 
   39930    119.90868   -1049.4237    9834.5706    19335.612    3.5982787    26.840214 
   39940    121.42691   -1050.1714    9827.8282    19335.301    3.5983366     26.84007 
   39950    122.82935   -1050.6419    9825.2308    19334.731    3.5984425    26.839807 
   39960    124.01058   -1050.9877    9826.2754    19333.901    3.5985971    26.839422 
   39970    124.87876   -1050.9019    9833.6019    19332.813    3.5987997    26.838919 
   39980    125.36948   -1050.3233      9847.94    19331.479     3.599048    26.838301 
   39990    125.45929   -1049.4799    9867.7127    19329.921     3.599338    26.837581 
   40000    125.16707   -1048.1557    9894.1084    19328.172    3.5996638    26.836771 
Loop time of 4.89703 on 1 procs for 20000 steps with 500 atoms

Performance: 352.867 ns/day, 0.068 hours/ns, 4084.106 timesteps/s
96.6% CPU use with 1 MPI tasks x no OpenMP threads

MPI task timing breakdown:
Section |  min time  |  avg time  |  max time  |%varavg| %total
---------------------------------------------------------------
Pair    | 4.1471     | 4.1471     | 4.1471     |   0.0 | 84.69
Neigh   | 0.11118    | 0.11118    | 0.11118    |   0.0 |  2.27
Comm    | 0.15145    | 0.15145    | 0.15145    |   0.0 |  3.09
Output  | 0.019989   | 0.019989   | 0.019989   |   0.0 |  0.41
Modify  | 0.40969    | 0.40969    | 0.40969    |   0.0 |  8.37
Other   |            | 0.05764    |            |       |  1.18

Nlocal:    500 ave 500 max 500 min
Histogram: 1 0 0 0 0 0 0 0 0 0
Nghost:    1439 ave 1439 max 1439 min
Histogram: 1 0 0 0 0 0 0 0 0 0
Neighs:    13513 ave 13513 max 13513 min
Histogram: 1 0 0 0 0 0 0 0 0 0

Total # of neighbors = 13513
Ave neighs/atom = 27.026
Neighbor list builds = 168
Dangerous builds = 0
Total wall time: 0:00:12
