LAMMPS (7 Aug 2019)
Reading data file ...
  orthogonal box = (-2.74753 -2.74753 -2.74753) to (30.6475 30.6475 30.6475)
  1 by 1 by 1 MPI processor grid
  reading atoms ...
  500 atoms
  reading velocities ...
  500 velocities
  read_data CPU = 0.00658703 secs
Neighbor list info ...
  update every 1 steps, delay 10 steps, check yes
  max neighbors/atom: 2000, page size: 100000
  master list distance cutoff = 8
  ghost atom cutoff = 8
  binsize = 4, bins = 9 9 9
  1 neighbor lists, perpetual/occasional/extra = 1 0 0
  (1) pair lj/cut, perpetual
      attributes: half, newton on
      pair build: half/bin/atomonly/newton
      stencil: half/bin/3d/newton
      bin: standard
Setting up Verlet run ...
  Unit style    : real
  Current step  : 0
  Time step     : 1
Per MPI rank memory allocation (min/avg/max) = 4.005 | 4.005 | 4.005 Mbytes
Step Temp PotEng Press Volume Density Lx 
       0    151.52805   -633.55878    170.16161    37243.149    1.8681267    33.395053 
     100    149.57423   -630.52899    165.97163    37418.651    1.8593647    33.447427 
     200    148.69686   -627.80024     88.78747    37843.316    1.8384996    33.573483 
     300     145.9974   -616.79202    86.311346    38262.746    1.8183462    33.697063 
     400    155.64209   -615.46345    45.103263    38595.227     1.802682    33.794384 
     500    153.00907   -612.69835    42.336245    38697.289    1.7979275    33.824146 
     600    143.45183   -610.80543    62.006623    38564.679    1.8041099    33.785465 
     700    151.05202    -627.2773   -6.5411927    38228.802    1.8199608    33.687095 
     800    147.64962   -640.75587    35.693353    37505.407    1.8550637    33.473256 
     900    142.60909   -646.47562    220.88004    36639.352    1.8989124    33.213598 
    1000     148.2819   -647.19098    320.51743    36326.304    1.9152766    33.118735 
    1100    157.46776   -651.51171    165.27518    36758.768    1.8927435    33.249643 
    1200     144.3167   -644.60552    44.356153    37353.997     1.862583    33.428151 
    1300    136.60312   -640.10148    11.038158    37639.605    1.8484498    33.513132 
    1400    153.35586   -639.68749    74.862467    37572.368    1.8517577    33.493165 
    1500    149.40643   -633.79509    167.68741    37442.522    1.8581793    33.454538 
    1600     144.3115   -630.45226    169.87008     37560.57    1.8523393    33.489659 
    1700    151.43461   -634.20117    65.135052    37893.687    1.8360557    33.588372 
    1800    150.25273   -628.63444    68.778782    38103.201      1.82596    33.650162 
    1900    145.25848   -624.22203    92.150012    38169.504    1.8227882    33.669668 
    2000    147.40314   -626.53327    71.934442    38177.083    1.8224263    33.671897 
    2100    153.06081   -627.32651    83.503636    38095.837    1.8263129    33.647994 
    2200    153.42851   -632.76236    74.435851    37929.582    1.8343181    33.598974 
    2300    138.05676   -626.48265     170.5032    37705.144    1.8452368    33.532572 
    2400    143.65376   -625.72249    182.90402    37746.658    1.8432074    33.544874 
    2500    149.70364   -625.55668    107.83902    38106.512    1.8258013    33.651136 
    2600    146.47645   -619.21916    63.687621    38515.388    1.8064188    33.771065 
    2700    147.88526    -618.4174    31.286129     38758.04    1.7951093    33.841838 
    2800    149.45879   -615.27916    89.057367    38731.335    1.7963471    33.834063 
    2900    151.72459   -611.37591    152.55753    38661.342    1.7995992     33.81367 
    3000     151.8639   -617.47211    73.700654     38756.19    1.7951951    33.841299 
    3100    141.11141   -617.94009     41.40702     38765.09    1.7947829    33.843889 
    3200    142.91372   -618.97263    78.453502    38543.661    1.8050937    33.779327 
    3300    152.55915   -624.06054    119.03324     38222.94    1.8202399    33.685373 
    3400    149.79144   -626.11769     146.7123    37979.516    1.8319064    33.613712 
    3500    137.96426   -631.21436    84.621716    37893.316    1.8360737    33.588262 
    3600    142.50417   -634.85548    76.134022     37769.33     1.842101    33.551589 
    3700     149.2499   -634.86033    125.17699    37566.442    1.8520498    33.491404 
    3800    152.29496   -637.61807      124.449    37443.125    1.8581494    33.454717 
    3900    142.27801   -640.35621     91.75747    37398.222    1.8603804    33.441339 
    4000    138.62012   -638.15589    116.65348    37348.512    1.8628566    33.426515 
    4100    146.45612   -641.82853    103.21554     37338.08     1.863377    33.423403 
    4200    146.73213   -639.48699    116.08107    37360.278    1.8622699    33.430025 
    4300    145.19216   -637.58651    108.24718    37454.011    1.8576093    33.457959 
    4400    143.88804   -632.23259     119.1405    37613.583    1.8497286    33.505407 
    4500     151.2457   -623.76296    135.22566    37900.881    1.8357072    33.590497 
    4600    154.26338   -627.89645    2.2787784    38319.647    1.8156461    33.713758 
    4700    141.91732   -627.13846   -26.319578    38409.119    1.8114167    33.739977 
    4800    138.94828   -623.38436    114.56371    38002.746    1.8307867    33.620564 
    4900    150.78949   -630.42779    188.59172    37554.458    1.8526408    33.487842 
    5000     148.6184   -630.72872    193.57554    37428.199    1.8588904    33.450271 
    5100    144.53716   -635.42284    63.053201    37642.936    1.8482863    33.514121 
    5200    142.52819   -634.27601    24.639856     37778.24    1.8416665    33.554227 
    5300    143.47411   -632.19453    85.015171    37635.251    1.8486637     33.51184 
    5400    148.48278   -632.97134    146.64853    37405.052    1.8600407    33.443374 
    5500    146.80443   -631.41354    171.68913    37338.517    1.8633552    33.423533 
    5600    136.41155   -630.04631    102.62687    37544.166    1.8531486    33.484783 
    5700    140.56853   -636.62509   -13.600771    37768.781    1.8421278    33.551427 
    5800    147.75954   -630.26321    88.446913    37622.897    1.8492707    33.508173 
    5900    153.75846   -633.71612     137.1075      37373.3     1.861621    33.433908 
    6000    149.41004   -640.66244    109.48337    37235.501    1.8685104    33.392767 
    6100    142.17895   -638.55189    134.20599    37155.007    1.8725584    33.368687 
    6200    141.43822   -638.19645    113.01745     37197.15    1.8704369    33.381298 
    6300    148.20817   -641.00408    60.453123    37281.208    1.8662196    33.406424 
    6400    147.10713   -640.87135    77.770796    37231.449    1.8687137    33.391555 
    6500    137.68841   -643.00877    95.568392    37084.685    1.8761092    33.347622 
    6600    138.05995   -646.05821     132.8459    36920.092    1.8844731    33.298213 
    6700     147.7417   -644.88975    179.08332    36885.589    1.8862358    33.287837 
    6800    147.78879   -639.59126    154.17227    37154.551    1.8725814     33.36855 
    6900    141.52169   -638.96851    28.533066    37625.572    1.8491392    33.508967 
    7000    124.28855   -633.17286   -7.0158411    37857.255    1.8378227    33.577604 
    7100    126.97276   -635.37869     32.60339    37662.814    1.8473107    33.520019 
    7200     140.0948   -638.17192    150.99127    37214.585    1.8695606    33.386513 
    7300    148.62808   -640.92082    217.15704    36951.556    1.8828685    33.307669 
    7400    143.83699   -638.17855    185.54182    37128.272    1.8739068    33.360681 
    7500    135.69461   -635.24672    76.515347    37621.345     1.849347    33.507712 
    7600    140.05743   -632.00672    14.908015    38051.264    1.8284523    33.634866 
    7700    149.12126   -631.94906    22.947947    38145.486    1.8239359    33.662605 
    7800    140.90694   -625.01025    138.71382    37957.785    1.8329552      33.6073 
    7900    139.95229   -623.74951    174.09077    37904.093    1.8355516    33.591446 
    8000    144.38678   -623.93741    114.31738    38133.272    1.8245201    33.659012 
    8100    154.40077   -625.65833    29.956783    38413.613    1.8112048    33.741293 
    8200    147.42014   -621.90169    35.901525    38442.074    1.8098638    33.749624 
    8300    136.44296   -621.84998    77.190027    38205.493    1.8210711    33.680247 
    8400    140.98399   -626.25465    121.93459    37865.826    1.8374066    33.580138 
    8500    150.41491   -635.01847    111.86324    37589.751    1.8509014    33.498329 
    8600    137.83686   -636.88091    121.42409    37377.192    1.8614272    33.435069 
    8700    136.33944   -639.47114    130.08742    37241.505    1.8682092    33.394561 
    8800    143.68344   -641.65841    119.24392    37228.319    1.8688708     33.39062 
    8900    145.75682   -643.54202    92.986365     37284.85    1.8660373    33.407512 
    9000    129.79235   -634.74978    134.45023    37349.003    1.8628321    33.426661 
    9100    133.52481   -636.44419    84.943625    37515.941    1.8545428     33.47639 
    9200    146.22247   -634.99865    74.371995    37670.232     1.846947    33.522219 
    9300    141.72359   -632.00786    63.859934     37732.94    1.8438776     33.54081 
    9400    136.63014   -632.43426    65.092474    37650.524    1.8479138    33.516372 
    9500    139.84811   -635.32618    90.476671     37408.73    1.8598579     33.44447 
    9600    148.63014   -636.90768    155.01906      37088.6    1.8759112    33.348795 
    9700    146.51238   -639.33542    166.65784    36915.079     1.884729    33.296706 
    9800    136.45554   -641.76786    102.31236    36972.238    1.8818152    33.313882 
    9900    139.96418   -646.45125    30.298287    37058.754     1.877422    33.339847 
   10000     141.7237   -648.01063    54.071438    36898.969    1.8855519    33.291861 
   10100    141.02561   -651.05979    126.64102    36516.051    1.9053243    33.176299 
   10200    133.60238    -653.2094      181.814    36173.872    1.9233473    33.072346 
   10300    139.31577   -663.52344    106.17348    36061.785    1.9293255    33.038151 
   10400    142.31048   -665.69423    83.841304    35987.443     1.933311    33.015433 
   10500    139.59377   -666.82311    88.263746    35851.318    1.9406517    32.973752 
   10600    133.04929   -666.37739    123.56425    35667.666     1.950644    32.917353 
   10700    137.17397   -666.52788    148.53765    35553.484    1.9569086    32.882189 
   10800    148.78293   -670.20053    108.99103    35589.642    1.9549205    32.893332 
   10900     138.3277   -663.84811    121.00171     35694.81    1.9491607    32.925701 
   11000     134.5078   -661.86956    92.785964    35876.177     1.939307    32.981372 
   11100    137.31683    -660.8465    62.574007     36047.98    1.9300644    33.033935 
   11200    138.45281   -657.49059    80.601152    36105.022     1.927015     33.05135 
   11300    140.37528   -653.92323     118.1268    36100.053    1.9272803    33.049834 
   11400    145.09247   -654.20127    118.49292    36149.249    1.9246574     33.06484 
   11500    142.47971   -652.67097    94.598178    36282.556     1.917586    33.105434 
   11600    136.47715   -659.58598   0.60723344    36377.575    1.9125772    33.134309 
   11700    134.55377    -663.8128    45.059179    36131.381    1.9256092    33.059391 
   11800    136.87885   -661.80193    210.23704    35691.909    1.9493191    32.924809 
   11900    150.85024   -668.24402    205.01668    35580.465    1.9554247    32.890505 
   12000    139.21049   -669.70729    84.789017    35836.978    1.9414282    32.969356 
   12100    133.70364   -668.65899    10.056246    36081.059    1.9282948    33.044037 
   12200    138.57367   -668.59073    35.782254    36025.768    1.9312543    33.027149 
   12300    141.90141   -666.54657    148.44799    35744.918    1.9464283      32.9411 
   12400    141.90072   -671.74889    142.57932     35587.13    1.9550585    32.892558 
   12500    134.93335   -680.00749    49.332627    35547.961    1.9572127    32.880486 
   12600    134.79984   -682.22538    71.991543    35362.979    1.9674508    32.823353 
   12700    140.44003   -687.22078    118.47164    35057.853    1.9845745    32.728676 
   12800    138.44806   -688.77823    164.94407    34804.024    1.9990482    32.649496 
   12900     128.3568   -692.54687    117.46172    34734.158    2.0030692    32.627635 
   13000    131.91561   -694.55988    92.187165    34731.351     2.003231    32.626756 
   13100    137.75634   -690.13024     134.6014    34730.762     2.003265    32.626571 
   13200    138.04846   -687.54426    114.48025     34838.73    1.9970567    32.660345 
   13300    138.44977   -690.63598    37.251532    34987.603    1.9885592    32.706801 
   13400    131.21606   -687.55678    76.495915    34964.972    1.9898463    32.699747 
   13500    130.18722   -686.18412    147.35435    34857.353    1.9959898    32.666164 
   13600    138.94195    -680.0688    219.46343    34923.649    1.9922008     32.68686 
   13700     140.4428   -675.81337    107.98941    35394.329    1.9657081     32.83305 
   13800    135.95681   -673.42646   -66.405385    35947.137    1.9354788    33.003102 
   13900    128.63502   -671.80317   -79.645011    35951.942    1.9352201    33.004573 
   14000    134.55142   -672.65222    110.88942    35333.778    1.9690768    32.814316 
   14100    149.54119   -683.96702    243.65672    34726.716    2.0034984    32.625304 
   14200    138.54684   -685.15269    256.29016    34613.288    2.0100639    32.589744 
   14300     132.6713   -684.58272    108.79055    34997.913    1.9879734    32.710013 
   14400    136.66837    -688.9264   -70.024283    35392.553    1.9658067    32.832501 
   14500    136.67468   -690.08097   -33.022076    35235.165    1.9745876     32.78376 
   14600    127.86947    -685.0522    192.57258     34679.27    2.0062395    32.610439 
   14700    136.67884   -691.60913    243.45416    34413.232    2.0217491    32.526836 
   14800    139.19151   -684.58631    231.94052    34650.207    2.0079222    32.601327 
   14900    136.26581    -680.9616    60.457346    35266.773    1.9728179    32.793561 
   15000    132.25318   -686.14013   -131.64387     35692.75    1.9492732    32.925067 
   15100    125.77398   -687.96437   -51.316561    35349.491    1.9682015     32.81918 
   15200    131.52118   -684.43954    245.35909    34610.792    2.0102088    32.588961 
   15300    141.50937   -691.46703    280.10258    34367.886    2.0244167    32.512543 
   15400    133.19594   -687.92536     171.9776     34719.55    2.0039119     32.62306 
   15500    131.27158   -688.80805   -17.379148    35239.914    1.9743215    32.785234 
   15600     134.5355   -687.12776   -33.291341    35357.228    1.9677708    32.821574 
   15700    143.28858   -683.82201    126.29989    35055.342    1.9847166    32.727895 
   15800    134.85825   -675.89959    260.88254    34872.998    1.9950943     32.67105 
   15900    134.02148   -683.82625    84.475772    35156.237    1.9790207    32.759263 
   16000    123.23602   -685.96701   -42.323423    35394.054    1.9657234    32.832965 
   16100     119.8703   -684.00341    24.878177    35178.066    1.9777927    32.766042 
   16200     135.3459   -696.49679    71.343473    34691.644    2.0055239    32.614317 
   16300    137.18014   -700.27976    194.41714    34178.767    2.0356182    32.452797 
   16400    132.06404   -703.09897    204.83724    33983.058    2.0473413    32.390736 
   16500    130.08119   -706.02755    92.966395     34111.64     2.039624    32.431537 
   16600    131.71768   -704.34069    47.445418    34226.038    2.0328067    32.467751 
   16700    140.35592   -701.26665    88.674897    34187.873     2.035076    32.455679 
   16800      141.353   -704.12213    80.297661    34096.681    2.0405188    32.426796 
   16900    130.66715   -703.60005    106.22781    33958.806    2.0488035    32.383029 
   17000    132.13934   -705.53919    124.89391    33846.641     2.055593    32.347336 
   17100    136.54032   -709.01528    109.93239    33811.728    2.0577156    32.336211 
   17200     131.4555   -708.37938    111.73265    33818.489    2.0573043    32.338365 
   17300    123.31087   -706.67428    106.14908    33858.654    2.0548637    32.351163 
   17400    133.88108   -708.45624    83.889441    33921.897    2.0510327    32.371293 
   17500    140.16205   -711.09895    63.933553    33929.396    2.0505794    32.373678 
   17600    130.69628   -707.74575    116.90812    33841.772    2.0558888    32.345785 
   17700    129.47854   -709.38315    120.31618     33789.86    2.0590473    32.329238 
   17800    135.15726   -711.26217    100.04963    33799.542    2.0584575    32.332325 
   17900    145.78715   -715.83756    51.611412    33803.318    2.0582276    32.333529 
   18000    133.32795   -717.60947    39.410749     33656.28    2.0672196    32.286579 
   18100    129.08342   -720.48455    123.42324     33320.27    2.0880659    32.178775 
   18200    129.73438   -719.33644    250.41816     33060.11    2.1044975    32.094807 
   18300    137.87636    -721.5803    188.80299    33226.018    2.0939891    32.148405 
   18400    133.77836   -718.37212    41.018004    33685.649    2.0654172    32.295968 
   18500    121.84192   -713.58528    -41.78577    34000.073    2.0463168    32.396141 
   18600    128.61371   -716.69745   -15.416816    33875.895    2.0538179    32.356653 
   18700    131.88904   -718.03248    163.36881    33395.117     2.083386    32.202851 
   18800    129.74114   -713.03957    329.76862     33106.71    2.1015353     32.10988 
   18900    134.62241   -713.70435    184.34965    33466.052    2.0789701    32.225636 
   19000    135.04904   -708.69777   -11.385767    34112.089    2.0395971     32.43168 
   19100    127.95341   -702.28547   -75.140498    34417.007    2.0215273    32.528025 
   19200    128.24041   -707.44599   -45.936213    34147.652     2.037473    32.442946 
   19300    138.35575   -723.62426    53.930933    33435.249    2.0808854    32.215746 
   19400    130.03782   -729.38025    246.79315    32720.751     2.126324    31.984612 
   19500     129.7567   -736.73071    249.82894    32508.407    2.1402132    31.915273 
   19600    127.99043   -734.54113    160.45849    32738.671    2.1251602     31.99045 
   19700    133.26862    -734.1904    36.696795    33077.802     2.103372    32.100531 
   19800    137.86244   -729.63047     65.67764    33197.935    2.0957605    32.139345 
   19900    127.39272   -718.80415     170.1938    33218.819    2.0944429    32.146083 
   20000    122.34574   -719.33451    92.302889    33391.647    2.0836025    32.201736 
   20100    131.28048   -721.66306    26.965825     33520.69    2.0755814    32.243164 
   20200    136.66184   -720.92403    64.191736    33436.292    2.0808205    32.216081 
   20300    129.09857   -717.96819    138.55861    33267.044    2.0914068    32.161631 
   20400    127.05199   -719.46107    147.49709    33210.404    2.0949736    32.143369 
   20500    129.39725   -719.37199    109.94199    33299.148    2.0893904    32.171974 
   20600    130.61476   -720.40794    54.372341    33412.405     2.082308    32.208407 
   20700    130.52572   -723.45749    34.681475    33383.383    2.0841184    32.199079 
   20800    122.70738   -724.28166    91.753882     33176.61    2.0971076    32.132462 
   20900    120.98194   -728.78629    121.84392    32945.574    2.1118138      32.0577 
   21000    137.45817   -737.63293    121.13224    32778.248    2.1225942    32.003336 
   21100    133.58854   -733.68377    193.51419    32709.985    2.1270239    31.981104 
   21200    124.53256   -727.39619     168.7311    32914.949    2.1137787    32.047764 
   21300    128.55673   -727.76004    5.5177135    33302.453    2.0891831    32.173038 
   21400    131.07761   -729.94975   -60.124005     33406.27    2.0826905    32.206435 
   21500    126.03738   -728.47967    80.715994    33057.137    2.1046868    32.093845 
   21600    127.52616   -738.09004    159.82375    32640.274    2.1315667    31.958368 
   21700     120.3668   -738.95957    233.15053    32437.384    2.1448992    31.892014 
   21800    126.90147   -739.28058    168.13295     32609.81     2.133558    31.948423 
   21900    134.86675   -740.50028    30.133208    32962.996    2.1106977     32.06335 
   22000    126.35873   -734.63661     20.72621    33117.863    2.1008276    32.113485 
   22100    124.27645   -734.00283     62.57189    33028.419    2.1065168    32.084548 
   22200    132.14012   -734.25937    144.04757    32845.169    2.1182695    32.025101 
   22300    141.95931   -731.24645    213.91375    32805.402    2.1208373     32.01217 
   22400    130.90112   -726.03508    147.48713    33081.812     2.103117    32.101828 
   22500    127.95311   -725.82114  -0.70325509    33474.156    2.0784667    32.228237 
   22600     126.4971   -728.83691   -56.929512    33543.105    2.0741944    32.250349 
   22700    124.68766   -730.61121    62.181197    33169.702    2.0975443    32.130232 
   22800    128.91582   -733.52763    213.21796    32730.775    2.1256729    31.987878 
   22900    135.06272   -736.08104    223.26737    32637.974    2.1317169    31.957618 
   23000    125.28887    -734.6426    104.66347    32883.006    2.1158321    32.037393 
   23100    118.64143   -729.83975    36.061901    33125.501    2.1003432    32.115953 
   23200    128.28537   -732.40184    8.5452707    33155.425    2.0984475    32.125621 
   23300    130.08745   -734.42468    81.164692     32934.01    2.1125554    32.053949 
   23400     124.3727   -731.38013    213.46872    32710.758    2.1269736    31.981356 
   23500    122.51351   -725.18287    228.19402     32837.14    2.1187875    32.022491 
   23600    140.32204   -732.67073    11.966033    33244.335    2.0928354    32.154312 
   23700    131.03069   -728.30083   -15.343506    33378.307    2.0844353    32.197447 
   23800    121.20449   -720.90504     120.6591    33201.561    2.0955316    32.140515 
   23900    129.51761   -727.86848    121.12842    33071.496     2.103773    32.098491 
   24000    132.32043   -733.11018     90.38517      33020.5     2.107022    32.081984 
   24100    119.67246    -732.8129     100.1186    32956.917     2.111087    32.061379 
   24200    123.45272   -735.46483     103.3589    32903.555    2.1145107    32.044065 
   24300    131.74721   -742.81312     72.90879    32852.401    2.1178032    32.027451 
   24400     122.3615   -737.42712    168.30019    32768.847    2.1232032    32.000276 
   24500    119.42835   -734.42496    168.02099    32867.257     2.116846    32.032278 
   24600    130.57604   -728.31932    132.75991    33169.337    2.0975674    32.130114 
   24700    128.58209   -723.28524    39.855294    33543.545    2.0741672     32.25049 
   24800    122.37733   -721.61827   -14.758583    33728.974    2.0627642    32.309808 
   24900    122.26275   -724.35129    23.907287    33559.196    2.0731998    32.255505 
   25000    129.53466   -727.48379    152.44337    33179.047    2.0969535    32.133249 
   25100    132.20496   -725.77704    256.97803    32984.445    2.1093252    32.070303 
   25200    120.46988   -722.69103    160.80675    33230.155    2.0937285    32.149739 
   25300    121.76347   -726.42282   -49.414919    33628.081    2.0689531     32.27756 
   25400    125.42451   -726.76234   -62.341005    33591.824    2.0711861    32.265956 
   25500    126.20632   -728.14747    98.104524    33082.849     2.103051    32.102163 
   25600    127.71038   -734.54743    222.03837     32598.57    2.1342937    31.944752 
   25700    128.24769   -739.81374    202.00898    32491.989    2.1412946    31.909899 
   25800    122.29615   -738.31015    116.54988    32682.566    2.1288084    31.972165 
   25900    119.67175   -735.60152    37.728708    32909.635    2.1141201    32.046039 
   26000    128.39055   -735.24644    21.275979    32960.986    2.1108264    32.062698 
   26100    134.14257   -743.20948    20.271655    32761.099    2.1237053    31.997753 
   26200     124.8939   -742.70377    161.72182    32377.891    2.1488404    31.872504 
   26300    122.51804   -744.37596    229.41188     32177.81    2.1622019    31.806716 
   26400    121.35731   -740.60227    181.07747    32361.915    2.1499012    31.867261 
   26500    130.72302   -743.35585    7.2808874    32741.674    2.1249653    31.991428 
   26600    123.16453    -737.2207    5.2450378    32874.757     2.116363    32.034714 
   26700    116.41317   -741.26682    29.496752    32712.036    2.1268905    31.981772 
   26800    121.21549   -743.82048    158.48333    32379.556    2.1487299     31.87305 
   26900    127.84814   -744.45114    228.80953    32228.364    2.1588102    31.823364 
   27000    126.15247   -744.80688    131.91653    32425.189    2.1457059    31.888016 
   27100    121.47998   -741.02182    27.910256    32711.238    2.1269424    31.981512 
   27200    123.45138   -744.73827   -31.556525    32766.179    2.1233761    31.999407 
   27300    122.46039   -746.68779    80.429709    32469.979    2.1427461    31.902692 
   27400    119.13205   -746.29765    208.81412    32148.464    2.1641755    31.797044 
   27500     125.2887   -753.91963    127.99242    32107.428    2.1669416    31.783509 
   27600    124.84703   -756.49414    37.804089    32155.578    2.1636968    31.799389 
   27700    119.96058   -762.75682   -5.9455893    32028.761    2.1722639     31.75753 
   27800    119.62653    -768.7672    99.927926    31639.947    2.1989582    31.628499 
   27900    121.13311   -767.10381    285.73078    31303.699    2.2225783    31.516058 
   28000    132.74287   -765.42277    263.48539    31460.807    2.2114792    31.568694 
   28100    126.10383   -761.89261    56.444366    32010.068    2.1735324     31.75135 
   28200    118.02074   -754.80187   -37.402038    32403.423    2.1471472     31.88088 
   28300    122.40385   -757.50472   -21.770702    32373.053    2.1491616    31.870916 
   28400    124.14468    -756.6359     154.8478    32054.924    2.1704909    31.766175 
   28500     119.3305   -748.07907    315.24181    31946.726     2.177842    31.730393 
   28600    126.31269   -747.90329    167.12756    32364.985    2.1496973    31.868269 
   28700    123.26762   -739.09762    30.248967     32916.26    2.1136946    32.048189 
   28800     115.8679    -730.4031    1.0059816    33193.213    2.0960586    32.137821 
   28900    124.63826   -732.56888    19.636924    33138.951    2.0994908    32.120299 
   29000    127.20142   -731.00018    147.07781    32896.183    2.1149846    32.041672 
   29100    121.85138   -733.50054    167.60707    32801.682    2.1210778     32.01096 
   29200    119.59569    -737.7689    102.89908     32899.63     2.114763    32.042791 
   29300    118.51626   -734.95808    95.974061     33020.98    2.1069914    32.082139 
   29400    122.12888   -735.42915    70.603803     33110.31    2.1013068    32.111043 
   29500    121.24893   -730.55838    118.45717    33134.028    2.0998027    32.118709 
   29600    125.37806   -727.66628    124.69502      33209.1    2.0950559    32.142948 
   29700    130.29753   -731.54608    31.097666     33330.62    2.0874175    32.182106 
   29800    117.40456   -730.44483    32.627938    33261.849    2.0917334    32.159957 
   29900    115.99356   -729.56981    138.23767    33001.598    2.1082288    32.075861 
   30000    122.22851   -728.50207    205.75651    32858.916    2.1173833    32.029568 
   30100    127.91741   -734.14664    81.814774    32993.816    2.1087261     32.07334 
   30200    120.04775   -735.86381   -3.7345016    33085.094    2.1029083     32.10289 
   30300    116.12307    -733.2797    93.731409    32894.581    2.1150876    32.041152 
   30400     121.1001   -732.95971    189.95569    32689.552    2.1283535    31.974443 
   30500    127.50014   -739.99886    111.17405    32714.205    2.1267495    31.982479 
   30600    116.72501   -738.47354    59.838171    32787.618    2.1219877    32.006385 
   30700    117.76043   -741.74714    33.144582    32740.969    2.1250111    31.991198 
   30800    123.67471    -748.7996    49.368125    32493.814    2.1411744    31.910496 
   30900    120.59347   -756.61001    118.27536    32099.906    2.1674493    31.781027 
   31000    115.98711   -761.75507    197.91041    31757.176    2.1908409    31.667513 
   31100    116.86618   -760.68663    226.28015    31698.462    2.1948989    31.647985 
   31200    123.99001   -765.92934    59.034284    31954.583    2.1773065    31.732994 
   31300    116.56142   -763.06694   -5.2330536    32128.493    2.1655208    31.790458 
   31400    107.95551   -759.12733       59.802    32025.943     2.172455    31.756598 
   31500    124.45647   -764.88107    122.19888    31796.851    2.1881073    31.680695 
   31600    124.25627   -766.66445    160.39246    31627.925     2.199794    31.624493 
   31700     118.9799   -772.11288    88.760824     31602.76    2.2015457    31.616103 
   31800    114.95949   -774.65061    75.059773    31561.633    2.2044144    31.602382 
   31900    114.38312   -770.61952    164.26852    31476.958    2.2103445    31.574095 
   32000    124.55437   -772.25853    137.70969    31545.327    2.2055539    31.596939 
   32100    121.33801   -770.49728    69.795389    31725.895     2.193001    31.657112 
   32200    115.45884   -765.94508    61.107176    31845.855    2.1847402    31.696962 
   32300    117.82836   -767.02156    57.381503    31855.392    2.1840861    31.700126 
   32400    121.77403   -770.22769    84.107474    31741.732    2.1919069    31.662379 
   32500    111.26029   -765.16338    185.21517    31589.843    2.2024459    31.611795 
   32600    112.64196   -772.04734    94.860967    31612.734    2.2008511    31.619429 
   32700     121.3891   -774.41788    51.116995    31652.532    2.1980839    31.632692 
   32800    121.44587   -770.33837    116.09093     31579.12    2.2031938    31.608218 
   32900    111.53688   -770.61106    119.59499    31521.318    2.2072339    31.588921 
   33000    111.73834   -775.01946    61.118349    31503.818    2.2084599    31.583074 
   33100    119.67113   -780.36154    58.675228    31376.965    2.2173885    31.540626 
   33200    115.68766   -774.78838    211.93335    31146.222    2.2338157     31.46312 
   33300    117.14618   -772.58611    222.65856    31175.975    2.2316839    31.473136 
   33400    130.82415   -772.89666    68.215891    31550.478    2.2051939    31.598659 
   33500    120.67076   -768.20853   -49.966136    31892.291    2.1815592    31.712361 
   33600    114.20926   -765.25408   -15.665287    31853.259    2.1842324    31.699418 
   33700    118.08651   -772.21143    83.502961    31466.772    2.2110599    31.570689 
   33800    118.73775   -778.70262     217.9373    31014.967    2.2432692    31.418861 
   33900    110.01092   -778.90951    258.58284    30863.938    2.2542464     31.36778 
   34000    116.01683   -785.48369    78.821921    31100.684    2.2370865    31.447779 
   34100     119.6494   -786.97542   -20.441319    31309.357    2.2221766    31.517956 
   34200    107.79618   -783.33672    56.235169     31224.96    2.2281829    31.489611 
   34300    107.66104   -788.88959    108.81191    31005.555    2.2439502    31.415683 
   34400    118.37155   -793.86675    164.46652    30809.644    2.2582189    31.349376 
   34500    118.15723   -793.66736    173.99624    30779.265    2.2604477    31.339068 
   34600     113.6852   -790.78705    102.57297    30944.848    2.2483523    31.395166 
   34700    112.73751   -790.09226    17.750962    31116.753    2.2359312    31.453194 
   34800    117.03453   -783.24385    92.519188    31103.708     2.236869    31.448798 
   34900    122.36735    -783.6238    112.02799    31054.367    2.2404231     31.43216 
   35000    116.83316   -787.06907    74.328627    31020.199    2.2428909    31.420628 
   35100    112.27097   -788.33686    103.85989    30928.979    2.2495059    31.389799 
   35200    117.12806   -794.37433    99.947747     30836.32    2.2562654    31.358421 
   35300    115.17338   -795.58072    134.52715     30751.07    2.2625203    31.329496 
   35400    102.81628   -789.37433      185.641    30764.517    2.2615314    31.334062 
   35500    112.01972   -789.11518    96.134586    30988.231    2.2452047     31.40983 
   35600     116.5477   -788.22495   -2.0811501    31216.789    2.2287661    31.486864 
   35700     112.5143   -782.96459    52.705468    31203.878    2.2296883    31.482522 
   35800    115.83493    -784.2832    124.10877    31051.183    2.2406528    31.431086 
   35900    119.19638   -785.35483     180.4882     30954.92    2.2476208    31.398572 
   36000    110.06796   -781.27115    170.40502    31068.022    2.2394384    31.436766 
   36100    105.54938   -777.14595     71.33391    31379.605    2.2172019    31.541511 
   36200    114.87395   -774.67789    3.2605891    31641.678    2.1988379    31.629076 
   36300     114.9354    -772.3658    36.064365    31653.971    2.1979839    31.633171 
   36400    112.69507   -769.55864    141.73587    31499.253      2.20878    31.581548 
   36500    115.98926   -773.20909    143.39165    31428.168    2.2137759    31.557774 
   36600    114.35289    -774.2128    90.241448    31473.343    2.2105983    31.572887 
   36700    108.87069   -776.21279    23.395681    31490.545    2.2093908    31.578638 
   36800    112.26231   -781.70893    25.891221    31301.865    2.2227085    31.515442 
   36900    122.61978   -791.15955    108.96296    30895.878    2.2519159    31.378597 
   37000    114.94346   -797.20136    218.30738    30506.686     2.280645    31.246282 
   37100    111.31636   -801.75593    220.07143    30408.278    2.2880257    31.212648 
   37200    110.05563   -798.75407    146.82286    30624.073    2.2719029    31.286308 
   37300    115.10199   -795.85823    30.749392    30964.593    2.2469186    31.401842 
   37400    114.46503   -787.10192    50.773939    31157.978    2.2329729    31.467079 
   37500    114.68284   -778.56055    120.29008    31229.423    2.2278644    31.491111 
   37600    121.67005   -775.90342    123.39032    31345.657    2.2196032    31.530132 
   37700    112.51328   -770.98926    77.208534    31530.115     2.206618    31.591859 
   37800    110.37931   -775.27309   -25.610368    31636.082    2.1992269    31.627211 
   37900    112.07525    -778.5716    44.769693     31417.28    2.2145431    31.554129 
   38000    112.16368   -777.80408    223.72733    31067.076    2.2395066    31.436447 
   38100    116.69316   -784.17228    186.29539     31007.57    2.2438043    31.416363 
   38200    106.85537   -787.58864    45.246301    31165.676    2.2324213     31.46967 
   38300     105.2308   -784.34207    42.017379    31216.302    2.2288008      31.4867 
   38400    112.71145   -783.31878    103.67853    31112.815    2.2362142    31.451867 
   38500    113.75471    -781.6339    170.33048    31010.938    2.2435606    31.417501 
   38600    109.28892    -777.7198    169.93979    31090.357    2.2378295    31.444298 
   38700    110.58098   -774.80158    77.031324     31368.49    2.2179876    31.537786 
   38800    119.38742    -774.4596   -6.9587468    31614.519    2.2007268    31.620024 
   38900    113.13572   -772.96619    9.9486361    31592.604    2.2022534    31.612716 
   39000    110.28051   -778.25618    90.246725    31288.383    2.2236663    31.510917 
   39100     112.6701   -784.52432    219.60753    30879.875    2.2530829    31.373178 
   39200    113.16276   -789.66497    242.60276    30693.311    2.2667779    31.309869 
   39300    109.76901   -794.03671    95.884837    30859.456    2.2545738    31.366261 
   39400    110.03325   -796.48723   -56.439049    31094.716    2.2375158    31.445768 
   39500    113.00971   -803.02954   -49.415654    30948.084    2.2481172     31.39626 
   39600     107.5632   -800.39941    256.49096    30380.289    2.2901336    31.203068 
   39700    113.26985   -806.39197    351.01926    30095.988    2.3117673    31.105429 
   39800    113.29457   -807.87416     155.8495    30414.883    2.2875288    31.214907 
   39900    102.58121   -801.15277   -58.183694    30927.936    2.2495818    31.389446 
   40000    107.25333   -800.50739   -101.87519    31063.522    2.2397628    31.435248 
   40100    112.39401   -801.17392    95.710034     30689.08    2.2670905     31.30843 
   40200    110.47339   -799.98088    304.35098    30305.993    2.2957479    31.177611 
   40300    112.21787   -805.72029    181.88546    30386.011    2.2897023    31.205027 
   40400    105.40822   -806.96576   -17.059224    30674.874    2.2681404    31.303598 
   40500    105.47321   -810.60805   -69.098555    30675.275    2.2681107    31.303735 
   40600    108.46324   -811.00692    131.29982    30280.545    2.2976773    31.168882 
   40700    110.69124   -812.58764    279.78572    29971.624    2.3213597    31.062525 
   40800    111.40737   -816.70764    170.90325    30079.653    2.3130227    31.099801 
   40900    103.97139   -810.89903    50.871232    30373.619    2.2906365    31.200784 
   41000    108.81186   -811.56241   -28.540638    30529.486    2.2789417    31.254064 
   41100    116.47511   -811.43334    57.959964    30385.167    2.2897659    31.204738 
   41200    111.68968    -812.7423    171.76343    30144.187    2.3080709    31.122026 
   41300    106.60183   -809.41336    220.90004    30094.187    2.3119056    31.104809 
   41400     110.4566   -813.08627    64.632191    30306.718     2.295693     31.17786 
   41500     109.9998    -813.4352   -17.158556    30439.288    2.2856947    31.223254 
   41600    102.22508   -813.50669    43.015986    30290.387    2.2969307    31.172259 
   41700    105.62033   -821.49266    111.56254    29996.796    2.3194118    31.071219 
   41800    112.75252   -819.28709    268.25829    29776.462    2.3365745    30.994956 
   41900    112.49961   -812.90787    243.30054     29953.99    2.3227263    31.056432 
   42000    107.79838   -811.14535   -16.657121     30435.56    2.2859747    31.221979 
   42100    101.07034   -811.38081   -140.19967    30608.275    2.2730755    31.280927 
   42200    103.75017   -816.91166  -0.37900784    30203.918    2.3035064    31.142569 
   42300    117.52678   -824.86149    251.54403    29639.449    2.3473756    30.947344 
   42400    107.21538   -820.09349    368.08199    29514.475    2.3573152    30.903786 
   42500    104.00125   -819.65791    119.69776    29953.716    2.3227476    31.056337 
   42600    107.20773   -816.58813   -68.631964    30369.925    2.2909151     31.19952 
   42700    110.60007   -810.56939    4.1022694    30351.683     2.292292    31.193272 
   42800    113.65244   -814.54348    96.043266    30103.955    2.3111555    31.108174 
   42900    102.42518   -818.79264    133.87326    29880.803    2.3284154    31.031118 
   43000    104.79637   -821.87337    150.77628    29767.815    2.3372532    30.991956 
   43100    108.59093   -819.91347    168.31035    29798.982    2.3348087    31.002768 
   43200    110.07739   -817.56665    119.39557    29978.967    2.3207911    31.065062 
   43300    105.45484   -814.08858    49.196335    30189.939     2.304573    31.137763 
   43400    101.17724   -815.88189   -12.331417     30258.72    2.2993345    31.161392 
   43500    105.69955   -821.75887    31.291405    30058.267    2.3146684    31.092429 
   43600    114.84561   -826.74879    174.19356    29720.705     2.340958    30.975598 
   43700    108.78105   -828.88888    226.18488    29574.974     2.352493    30.924887 
   43800    102.72947   -828.50774    146.67086     29725.47    2.3405827    30.977254 
   43900    101.72344   -820.81045    91.796501     29996.67    2.3194215    31.071175 
   44000     104.0995   -811.11523    79.726863    30240.526    2.3007179    31.155145 
   44100     106.4509   -805.63806    57.665436    30416.199    2.2874298    31.215358 
   44200    107.96047   -804.17512    54.013793    30477.616    2.2828203    31.236354 
   44300    105.84654    -802.7293    88.622291    30427.311    2.2865944    31.219158 
   44400    105.54385   -812.35016    23.784275    30320.738    2.2946315    31.182667 
   44500    100.24752   -815.61619    105.10442    30063.573    2.3142599    31.094258 
   44600    103.81437   -815.62234    224.45167    29844.549    2.3312438    31.018563 
   44700    111.20313   -820.09329    147.79539    29902.737    2.3267074    31.038709 
   44800    104.51793   -814.04689     90.92636    30093.564    2.3119535    31.104594 
   44900    103.14504   -811.16624    35.452169    30255.027    2.2996152    31.160124 
   45000    107.31385   -813.83836    22.606757    30250.674    2.2999461     31.15863 
   45100    106.41272   -815.17624    105.41106    30067.093    2.3139889    31.095471 
   45200    97.817242   -818.39088    134.35204     29895.28    2.3272878    31.036128 
   45300    102.25702   -828.02286    67.721183    29797.267     2.334943    31.002174 
   45400      106.832   -831.37422     104.1618    29648.893    2.3466279     30.95063 
   45500    106.68651   -833.75907    144.87471    29517.537    2.3570707    30.904854 
   45600     99.00192   -837.29783    98.088924    29487.684     2.359457    30.894432 
   45700    98.113968   -839.36505      91.8066    29462.979    2.3614354    30.885802 
   45800    102.62033   -835.98528    155.07797    29436.878    2.3635292    30.876679 
   45900    104.93024   -832.22548    150.51558    29534.462    2.3557199     30.91076 
   46000    105.02454   -829.42254    74.521093    29745.799     2.338983    30.984314 
   46100    104.98379   -827.41955    11.152643    29897.446    2.3271192    31.036878 
   46200    106.43778   -829.84655    8.1777304    29829.705    2.3324039     31.01342 
   46300    103.98365    -834.3987     85.86477    29549.067    2.3545556    30.915855 
   46400    103.65508   -844.32245    139.23148    29226.332     2.380556    30.802888 
   46500    102.65814   -850.47648    184.65898    29011.324    2.3981987    30.727167 
   46600    100.11899   -849.52337    197.38063    29004.006    2.3988038    30.724583 
   46700    106.74715   -846.96455    121.38956    29213.829    2.3815748    30.798495 
   46800    110.41111   -845.35597    14.487402    29461.711     2.361537    30.885359 
   46900    99.687286   -838.49177    45.250327    29527.095    2.3563077     30.90819 
   47000    102.95751   -842.21068     56.91215    29445.412    2.3628442    30.879663 
   47100    106.69432   -846.36429    120.39373    29277.712    2.3763783    30.820928 
   47200    98.686841   -844.44596    186.21696    29168.571    2.3852701    30.782582 
   47300    97.254151   -846.76312    99.654588    29244.242    2.3790981    30.809179 
   47400    108.25714    -852.9837    -10.79706    29311.821    2.3736131    30.832892 
   47500    103.14709   -849.02095    103.47458    29155.827    2.3863127    30.778099 
   47600    99.494175   -849.96547    165.69823    29004.907    2.3987293    30.724901 
   47700    100.56544   -856.00142    97.426495    28993.614    2.3996636    30.720913 
   47800    98.095623   -856.95437    75.765986    28990.829    2.3998942    30.719929 
   47900    103.46895   -859.99943    83.045049     28932.67    2.4047183    30.699373 
   48000    105.37259   -856.73355    160.81539    28859.324    2.4108299    30.673409 
   48100    102.52358   -854.84679    142.30592    28910.476    2.4065643    30.691521 
   48200    94.370934   -850.66428     76.88403    29059.775    2.3942003    30.744263 
   48300    104.48841   -857.01287   -26.178034    29128.069    2.3885868    30.768328 
   48400      107.316   -856.23475    102.39448    28941.134     2.404015    30.702366 
   48500    99.297948   -851.13197     254.7633    28779.325    2.4175314    30.645041 
   48600    102.00978   -855.85076    126.19196      28930.1    2.4049319    30.698464 
   48700    103.41739   -856.51486   -9.0807253    29140.794    2.3875438    30.772808 
   48800    101.00679   -855.97772    15.901158    29110.073    2.3900634     30.76199 
   48900    100.79668   -857.72987    133.22696    28893.105    2.4080112    30.685373 
   49000    101.24735   -858.18511    220.40079    28765.577    2.4186868     30.64016 
   49100    103.73779   -855.93417     176.5135    28905.689    2.4069629    30.689827 
   49200    103.12333   -850.78466    70.995083    29206.336    2.3821858    30.795862 
   49300    99.477857   -844.94178    3.8673345    29429.321    2.3641361    30.874037 
   49400    100.07941   -844.08818    19.036305    29417.911     2.365053    30.870046 
   49500    104.60615    -843.6586    134.78343    29236.203    2.3797523    30.806355 
   49600    103.93598   -842.57962    204.70632    29146.678    2.3870617    30.774879 
   49700    96.027408   -841.88173    116.00993    29281.922    2.3760366    30.822405 
   49800    97.091904   -843.86348    1.0165348    29438.745    2.3633793    30.877332 
   49900    105.21981   -844.30186    62.452493    29381.206    2.3680076    30.857202 
   50000    105.50012   -839.78123    215.30847    29258.748    2.3779186    30.814272 
   50100    96.105483   -831.26542    227.14452    29405.123    2.3660816    30.865572 
   50200    99.763742   -833.02994   -7.6040197    29786.769    2.3357659    30.998532 
   50300    102.65296   -834.46586   -99.837238    29898.789    2.3270147    31.037343 
   50400    100.71085   -839.56046    16.220084    29551.103    2.3543934    30.916565 
   50500     96.77032   -844.98561    215.38935    29076.415    2.3928301     30.75013 
   50600    99.588345   -851.47885    251.34123    28909.411     2.406653    30.691144 
   50700    100.31957    -850.4385      148.715    29084.985     2.392125    30.753151 
   50800    100.24335   -849.03879    10.701293    29331.747    2.3720005    30.839878 
   50900    98.836745   -848.48484   -11.035678    29356.081    2.3700343    30.848404 
   51000    97.429763   -848.00284    105.22645    29147.957     2.386957    30.775329 
   51100    99.776346   -846.91664    211.36854    28982.582     2.400577    30.717016 
   51200    108.71523   -853.32517    86.307559    29043.391    2.3955508    30.738484 
   51300    99.904006   -855.84547   0.98674731    29075.597    2.3928974    30.749841 
   51400    95.809133    -854.2644    110.43334    28914.854       2.4062     30.69307 
   51500    101.50804   -859.24383    161.29716    28773.391    2.4180299    30.642934 
   51600    100.31805   -857.44613    178.45538    28787.447    2.4168493    30.647923 
   51700     95.81876    -858.7716    63.406184    28954.635     2.402894     30.70714 
   51800    94.166211   -861.29097   -17.427456    29035.959     2.396164    30.735862 
   51900     101.3661   -865.36559    46.853407    28861.239    2.4106699    30.674088 
   52000    107.31198   -869.34667     183.3306    28582.308    2.4341954     30.57495 
   52100    96.249991   -865.34721    259.58522    28501.753    2.4410751      30.5462 
   52200    95.117562   -863.44148    132.49453    28753.764    2.4196804    30.635965 
   52300    100.40443   -863.57407   -38.855418    29064.339    2.3938243    30.745872 
   52400    98.901156   -860.76539    1.2043259    29070.685    2.3933017     30.74811 
   52500    92.170258    -857.0419    156.60028    28871.675    2.4097986    30.677785 
   52600     96.21807   -861.52426    159.27444    28782.524    2.4172627    30.646176 
   52700    103.03252   -862.83566    113.33834    28834.943    2.4128683    30.664769 
   52800     100.1465   -863.26912    48.421671    28912.756    2.4063746    30.692328 
   52900    93.218087    -862.4816    59.876752    28880.386    2.4090717     30.68087 
   53000    96.115775   -864.28912    109.16495    28756.511    2.4194493    30.636941 
   53100    96.724223     -860.518      187.435    28671.557    2.4266181    30.606741 
   53200    101.37721   -863.33083    90.306481     28753.57    2.4196968    30.635896 
   53300    97.430557   -864.21272    32.446753    28821.581    2.4139869    30.660032 
   53400     93.09349   -859.98572    119.08769    28765.434    2.4186988    30.640109 
   53500    100.77816   -866.89024    80.736267    28720.909    2.4224484    30.624292 
   53600    96.984333   -866.68156     117.3794     28652.78    2.4282083    30.600059 
   53700     92.27022   -865.61972    138.91394    28622.545    2.4307734    30.589291 
   53800    98.865833   -870.60116    75.473914    28663.255     2.427321    30.603787 
   53900    103.94577   -867.69152     121.9905    28675.012    2.4263258    30.607971 
   54000     100.3587   -867.63849    101.79309    28724.157    2.4221745    30.625447 
   54100    92.564891     -867.508     65.07275    28777.907    2.4176504    30.644537 
   54200    95.351463   -868.93864    66.791896    28754.892    2.4195856    30.636366 
   54300    98.196403   -867.77889    131.53394    28665.881    2.4270986    30.604721 
   54400    98.367737   -866.21439    155.04239    28638.532    2.4294165    30.594985 
   54500    92.851605   -865.78415     90.56348    28725.727    2.4220421    30.626005 
   54600    89.418635   -864.13434    53.543893     28808.16    2.4151115    30.655272 
   54700    96.377099   -863.66934    81.876111    28798.842     2.415893    30.651966 
   54800    100.31169   -867.26343     96.10188    28733.513    2.4213858    30.628771 
   54900    96.413139   -870.46225    120.00349    28652.579    2.4282254    30.599987 
   55000    93.160282   -870.59398    149.97591    28612.046    2.4316653    30.585551 
   55100    93.651441   -868.73507    132.09741    28682.729     2.425673    30.610716 
   55200    95.466797    -863.7788    89.654462    28850.889    2.4115347    30.670421 
   55300    100.37012    -858.0028    42.134066    29032.504    2.3964492    30.734642 
   55400    107.81101   -856.68557    15.161626    29103.138    2.3906329    30.759547 
   55500    94.412048   -853.03366    92.534939    28988.375    2.4000973    30.719062 
   55600    94.078852   -858.87149    123.35882    28818.198    2.4142703    30.658832 
   55700    95.693683   -864.96539    132.57274    28682.385    2.4257021    30.610594 
   55800    93.144089   -868.62017    131.53273    28608.001    2.4320092    30.584109 
   55900    91.329219   -869.40023    117.05357    28606.109      2.43217    30.583435 
   56000     95.24524   -870.19292     100.5083    28646.585    2.4287335    30.597853 
   56100    100.37888   -868.37697    116.17158    28701.659    2.4240731    30.617449 
   56200    92.858984   -862.05358    123.85205    28800.666      2.41574    30.652614 
   56300    87.866082   -858.91911    53.006727    28955.056    2.4028591    30.707288 
   56400    104.13649   -867.82791   -35.914912    28990.693    2.3999054    30.719881 
   56500    97.899395   -864.30379    146.35061    28752.655    2.4197737    30.635572 
   56600    92.869419   -864.03088    235.22932    28596.129    2.4330188    30.579878 
   56700    92.830814   -865.65796    118.10248    28717.591    2.4227283    30.623113 
   56800    90.864366   -862.13925    29.377231    28899.617    2.4074686    30.687678 
   56900    99.557618   -863.12893    11.264231    28927.006    2.4051891    30.697369 
   57000    97.675321   -862.18116    109.96196    28765.862    2.4186628    30.640261 
   57100      94.1069   -867.34633    137.30535    28601.145    2.4325921    30.581666 
   57200    93.601109   -870.94356    137.38085    28520.038    2.4395101    30.552731 
   57300    93.817656   -874.28211    85.406989    28516.025    2.4398534    30.551298 
   57400     89.86564    -873.9773    80.736946    28491.344    2.4419669    30.542481 
   57500    89.943212    -877.6687    77.032819    28414.548    2.4485668    30.515015 
   57600    97.133523    -884.2871    96.027458    28279.446    2.4602646    30.466575 
   57700    93.661724   -882.11741    202.98721     28154.22    2.4712076    30.421538 
   57800    88.469012   -881.57895    160.83716    28229.873    2.4645849    30.448762 
   57900    88.357152   -876.80986    80.432806    28453.298    2.4452322     30.52888 
   58000    94.996037   -873.29036    20.421713    28649.317    2.4285019    30.598826 
   58100    91.735169   -868.83107    53.310343    28686.518    2.4253526    30.612064 
   58200    93.100765   -871.12715    81.984135     28606.27    2.4321563    30.583492 
   58300    93.181987   -875.73414    111.44768    28476.174    2.4432679    30.537059 
   58400    84.999663   -873.24102    175.61706    28381.733    2.4513979    30.503263 
   58500    93.858725   -880.46894    73.220069    28421.635    2.4479563    30.517551 
   58600     95.86185   -881.36107    64.389739     28421.13    2.4479998    30.517371 
   58700     84.72335   -876.03534     154.4427    28355.113    2.4536992    30.493724 
   58800    82.813023   -874.14698    140.86542     28392.85    2.4504381    30.507245 
   58900    93.640143   -871.90785     80.93102     28531.31    2.4385463    30.556755 
   59000    95.031671   -871.89991    3.3152774    28636.391    2.4295981    30.594223 
   59100    93.478104   -878.75188   -27.008384    28522.042    2.4393387    30.553446 
   59200    89.771841   -885.42435    134.66525    28121.828     2.474054    30.409867 
   59300    87.966569   -885.61368    350.04747      27789.7    2.5036226    30.289675 
   59400     93.56937   -887.66938     227.7991    27946.808     2.489548    30.346649 
   59500    95.253956   -884.48412   -29.870573    28389.877    2.4506947    30.506181 
   59600    84.756708   -879.52878   -111.80563     28577.15    2.4346347    30.573111 
   59700    86.518753   -883.78496     22.96816    28304.856     2.458056    30.475697 
   59800    90.587178   -884.03902    311.42882    27895.936     2.494088    30.328224 
   59900    93.457774   -886.72924    278.68448    27908.074    2.4930033    30.332622 
   60000     92.27061   -888.84255   -2.4464198    28273.313    2.4607983    30.464372 
   60100    88.157631   -887.42324   -93.855048     28428.14    2.4473962    30.519879 
   60200     88.95189   -889.02601    61.249811    28179.901    2.4689555    30.430785 
   60300    90.984017   -890.65529    260.08978    27874.042     2.496047    30.320288 
   60400    92.478211   -893.58167    209.85639    27894.896     2.494181    30.327847 
   60500    86.167932   -895.31502    7.5581488    28124.899    2.4737838    30.410974 
   60600    84.577946   -895.88556   -30.882579    28163.026    2.4704348    30.424709 
   60700    88.302642   -895.25423    131.17397    27949.738     2.489287    30.347709 
   60800    92.696257   -896.45497    225.10022    27810.801     2.501723     30.29734 
   60900    89.138673    -893.6167    178.93003    27930.994    2.4909575    30.340924 
   61000    82.828496   -888.15922    65.042309     28199.77    2.4672159    30.437935 
   61100    91.819526   -887.49396   -21.364089    28370.726    2.4523489     30.49932 
   61200    93.256094   -888.39448    25.392573    28276.907    2.4604855    30.465663 
   61300    84.709745   -883.61762    203.24174    28062.369     2.479296    30.388419 
   61400    88.603801   -886.06631    183.01628    28057.108    2.4797609     30.38652 
   61500    94.164107   -886.35974    78.502754    28216.685    2.4657369     30.44402 
   61600    86.538272   -883.56541    24.973849    28320.547    2.4566941    30.481327 
   61700    83.533918   -885.99997    26.597748    28257.777    2.4621513    30.458791 
   61800    90.731402   -892.95145    92.550392    28050.834    2.4803156    30.384255 
   61900    90.050868   -893.51177    211.53955    27867.308    2.4966502    30.317846 
   62000    85.509425   -893.91565    179.67967    27911.681    2.4926811    30.333929 
   62100    79.778508     -890.071    83.264633    28115.458    2.4746145    30.407571 
   62200    88.190013   -887.77873    30.086463    28273.165    2.4608112    30.464319 
   62300    89.938444   -885.37617    56.779098    28276.818    2.4604933    30.465631 
   62400    90.062778   -888.39687    76.324132    28179.379    2.4690012    30.430597 
   62500    86.023662   -891.03452     111.1173    28045.357    2.4807999    30.382277 
   62600    85.939606   -894.66122    122.21743    27940.962    2.4900689    30.344533 
   62700    90.305337   -899.55155    95.283763    27884.705    2.4950925    30.324154 
   62800    89.544053   -902.25661    97.700439    27825.377    2.5004125    30.302632 
   62900    82.668141   -900.58096    134.90093    27775.255    2.5049246    30.284426 
   63000    86.243602   -901.47304    111.19865     27794.69    2.5031731    30.291488 
   63100    91.744284   -902.66288    72.707722    27835.565    2.4994973     30.30633 
   63200    86.455305   -898.71876    100.61273    27831.568    2.4998563    30.304879 
   63300    83.737392   -899.63285    89.110264    27817.564    2.5011148    30.299795 
   63400    82.854435   -902.38759    81.571017    27780.201    2.5044786    30.286224 
   63500    85.746909   -902.47553    133.80289    27716.272    2.5102554    30.262974 
   63600     91.05305   -903.98375    137.38994    27715.922     2.510287    30.262847 
   63700    86.666384   -901.10644    114.40961    27800.251    2.5026724    30.293508 
   63800    82.221178   -899.73952    55.176576    27910.107    2.4928217    30.333359 
   63900    85.559752   -897.20962    72.521129    27939.107    2.4902342    30.343861 
   64000    92.116119   -898.75127    94.037131    27905.426    2.4932399    30.331663 
   64100    88.278243   -901.07855    100.10324     27853.27    2.4979085    30.312754 
   64200    83.403513     -900.249     140.1251    27809.704    2.5018216    30.296942 
   64300    85.977394    -901.6395    114.26289    27839.637    2.4991317    30.307808 
   64400    88.877628   -900.40083     96.82495    27906.633    2.4931321      30.3321 
   64500    89.593656   -896.00952    112.20397    27978.582    2.4867207    30.358145 
   64600     87.23611   -893.82973    81.663089    28073.988    2.4782699    30.392613 
   64700    82.923566   -894.63024    34.212663    28124.094    2.4738547    30.410683 
   64800    82.569782   -895.42127     83.15105    28042.844    2.4810223     30.38137 
   64900    88.482091    -894.2471    186.03685    27929.853    2.4910593     30.34051 
   65000    89.023026    -893.0361    165.61792    27983.297    2.4863017     30.35985 
   65100    86.914401   -893.58066    19.980434    28172.688    2.4695876    30.428188 
   65200    86.216753   -896.07477   -31.457967    28202.711    2.4669586    30.438994 
   65300    82.700497   -894.95919    131.47006    27966.574    2.4877885    30.353801 
   65400    86.379784   -896.60838    233.39903    27781.049    2.5044022    30.286532 
   65500    93.018709   -901.92857    134.58019    27847.955    2.4983853    30.310826 
   65600    80.650827   -895.88135    55.765322    28014.884    2.4834984    30.371269 
   65700    83.352038   -898.18968    -27.70304    28085.081    2.4772911    30.396615 
   65800     86.07752    -898.7128    86.669721    27902.351    2.4935146    30.330549 
   65900    87.438772   -901.34136    215.92087    27678.764    2.5136571    30.249316 
   66000    80.432715   -901.19818    201.29216    27683.332    2.5132423     30.25098 
   66100    79.387236   -899.26256    64.324739    27901.857    2.4935588    30.330369 
   66200    86.330084   -900.40696   -44.100644    28057.917    2.4796895    30.386812 
   66300    85.815934   -900.60686    40.480376    27926.701    2.4913405    30.339369 
   66400    83.702931   -902.71623    191.95697    27661.259    2.5152478    30.242938 
   66500    83.410867   -905.56581    214.93717    27565.428     2.523992    30.207973 
   66600     80.10458   -904.87067    98.014089    27705.026    2.5112744     30.25888 
   66700    80.808736   -909.71394   -69.262428    27838.897    2.4991982    30.307539 
   66800    87.472434    -919.8527   -37.911858    27627.375    2.5183326    30.230584 
   66900    81.150942   -919.73751     292.3428    27162.226    2.5614587    30.059964 
   67000    80.870852   -922.57926    340.61575    27052.597    2.5718389    30.019468 
   67100    88.693459   -928.35723    24.095785    27387.894    2.5403531    30.142982 
   67200    81.786459   -923.20178   -89.635359    27602.285    2.5206218     30.22143 
   67300    77.725442    -922.1792    20.633992     27438.62    2.5356567     30.16158 
   67400    85.359401   -927.17987    202.68979     27122.29    2.5652303    30.045224 
   67500    85.256682   -926.05929    284.39114    27022.619     2.574692    30.008375 
   67600    83.267452   -928.07465     77.40998    27252.919    2.5529347    30.093383 
   67700    79.915281   -927.21312   -61.319173    27440.035     2.535526    30.162098 
   67800    79.370191   -925.83347    42.978537    27320.999    2.5465731     30.11842 
   67900    81.824275   -924.61582    223.15624    27109.585    2.5664325    30.040532 
   68000     83.37602   -920.34185    243.55603    27150.241    2.5625894    30.055542 
   68100     86.36097   -921.07363    30.240505     27431.64    2.5363019    30.159022 
   68200    78.701426   -918.10085   -29.960114    27568.314    2.5237278    30.209027 
   68300    75.810687   -915.66846    100.79254    27452.503    2.5343743    30.166666 
   68400    79.554218   -915.71414    198.28481    27352.203    2.5436679    30.129882 
   68500    85.134581   -918.92626    105.48198    27429.509    2.5364989    30.158241 
   68600    82.017048   -918.87551    47.605105    27511.725    2.5289189    30.188343 
   68700    77.549836   -917.12083    76.290071    27491.266    2.5308009    30.180858 
   68800    83.585419   -920.13981    94.331814     27422.19    2.5371759    30.155559 
   68900    87.291806   -919.05231    147.00733    27362.022    2.5427551    30.133487 
   69000    76.555481   -915.87874    142.98409    27395.144    2.5396807    30.145642 
   69100    78.154931   -918.53648    45.016612    27494.096    2.5305404    30.181894 
   69200    84.594056   -922.52314    18.454606    27480.588    2.5317843     30.17695 
   69300    80.136298   -919.13267    162.55458    27335.841    2.5451904    30.123874 
   69400    78.640213   -921.82861    158.61821     27304.71    2.5480923    30.112434 
   69500    79.580251   -925.06172    58.929401    27380.807    2.5410106    30.140382 
   69600    79.841868   -923.88071    56.659173    27385.256    2.5405978    30.142014 
   69700     84.47366   -925.84931    85.482039    27302.888    2.5482623    30.111764 
   69800    83.435763    -929.5016     109.4711    27192.043      2.55865    30.070959 
   69900    77.580973   -930.29045    143.94418    27110.543    2.5663418    30.040886 
   70000    78.679834   -930.77441    135.62538    27117.753    2.5656595    30.043549 
   70100    81.572945   -929.72147    96.384087    27195.869      2.55829    30.072369 
   70200    81.091216   -926.58336    83.417698    27272.354    2.5511153    30.100535 
   70300    80.342007   -925.52468    69.607077    27310.105    2.5475889    30.114417 
   70400    78.863241   -927.08484    61.749608    27284.627    2.5499678    30.105049 
   70500     80.23242   -931.89155    77.283975    27181.001    2.5596894    30.066888 
   70600    78.000436   -931.60501     172.0644     27047.15    2.5723568    30.017453 
   70700    80.865193   -936.65185    125.24533    27036.984     2.573324    30.013691 
   70800    81.317387   -941.30139    38.354417    27072.499    2.5699482    30.026827 
   70900    73.020625   -937.37221    113.39164    27010.754    2.5758229    30.003983 
   71000    79.055424    -939.2056    127.64205    26961.516     2.580527     29.98574 
   71100    80.460094   -937.65147    131.98273    26973.946    2.5793378    29.990347 
   71200    79.180666   -936.28347    95.497136    27049.337    2.5721488    30.018262 
   71300    80.698762    -939.7106    13.662907    27105.209    2.5668469    30.038916 
   71400    73.585282   -940.53532    61.603048    27002.137     2.576645    30.000791 
   71500    74.039731    -939.9916    189.71673    26830.732    2.5931055    29.937177 
   71600    78.989565   -939.69462    190.87343    26825.592    2.5936024    29.935265 
   71700    81.697257   -942.48032    35.292471    26979.889    2.5787697    29.992549 
   71800    74.498596   -936.69822    51.027876    27042.332    2.5728151     30.01567 
   71900    78.238178   -938.32717    84.678539    26999.985    2.5768503    29.999994 
   72000    83.179357   -938.05468    152.76206    26936.025    2.5829691    29.976287 
   72100    81.980253   -940.09683    103.39908    26959.935    2.5806783    29.985154 
   72200    79.442545   -941.29493    46.534298    26992.848    2.5775316    29.997351 
   72300    76.687331   -942.13925    74.916984    26930.798    2.5834704    29.974348 
   72400    79.821323   -948.37881    96.219148    26808.106    2.5952941    29.928759 
   72500    73.421784    -946.8446    204.09031    26695.106    2.6062799    29.886649 
   72600      71.6386   -943.81483    183.99835    26773.444    2.5986541    29.915855 
   72700    78.045278   -939.98496    37.356932     27019.53    2.5749863    30.007231 
   72800    80.148517   -941.28636   -78.288434      27144.1    2.5631692    30.053276 
   72900    74.570554   -938.76056    88.129946    26940.459     2.582544    29.977931 
   73000    77.497625   -942.71886    229.32271    26695.704    2.6062216    29.886872 
   73100    82.981804   -946.51886    195.17403    26686.801     2.607091    29.883549 
   73200    75.412242   -944.98814    59.963851    26865.421    2.5897573    29.950073 
   73300    75.326388   -947.28137   -37.016963    26972.755    2.5794518    29.989906 
   73400    74.668587   -942.96062    126.81883    26844.194    2.5918052    29.942183 
   73500    83.486298   -951.17606    142.93968    26728.686    2.6030056    29.899175 
   73600    80.679146   -955.12909    110.43297    26695.782    2.6062139    29.886901 
   73700    75.951023   -953.85879    122.38105    26691.863    2.6065966    29.885438 
   73800     74.71576   -952.68655    100.78762    26732.626     2.602622    29.900644 
   73900    78.497736   -953.20068    66.476991    26777.715    2.5982396    29.917445 
   74000    78.703221   -950.15437    107.45868    26772.974    2.5986997     29.91568 
   74100    74.596205   -947.50245    121.51112    26780.079    2.5980103    29.918326 
   74200    71.541563   -946.33763    82.648787    26826.541    2.5935107    29.935618 
   74300    77.730911   -947.45647    56.920444    26847.413    2.5914944     29.94338 
   74400     80.20802   -949.29488    87.531669    26784.745    2.5975577    29.920063 
   74500     75.11712   -947.94616    173.65001    26690.457     2.606734    29.884913 
   74600    74.182065   -947.63084    164.43803    26724.739      2.60339    29.897703 
   74700    73.306382   -942.19122    98.850973    26911.681    2.5853056    29.967254 
   74800    74.814649   -938.02639   -11.715724    27137.273     2.563814    30.050756 
   74900    77.215275   -939.67478   -56.414139    27167.769    2.5609361    30.062008 
   75000    75.938144   -942.67471    115.11181    26881.394    2.5882184    29.956007 
   75100    75.274308   -948.86485    266.54497    26579.291    2.6176364    29.843365 
   75200    73.390603   -955.69018    183.83738      26558.4    2.6196954    29.835545 
   75300    71.312634   -953.33893    69.062916    26717.201    2.6041246    29.894892 
   75400    73.558062   -951.54196   -1.5841706    26831.318     2.593049    29.937394 
   75500    78.324083   -955.82922    13.911985    26747.937    2.6011322    29.906351 
   75600     76.71802   -959.58804    145.37717    26501.875    2.6252829    29.814363 
   75700    74.709543   -964.66047    214.22448    26327.543    2.6426667    29.748845 
   75800    72.890591   -963.95414    194.08589    26366.028    2.6388093    29.763333 
   75900    72.070968   -957.46232    99.868873    26588.727    2.6167075    29.846897 
   76000    76.079631   -954.35508   -27.456482    26810.917    2.5950221    29.929805 
   76100    73.591266    -950.4329    20.224499    26803.869    2.5957044    29.927182 
   76200    72.118234   -946.41148    187.08182    26652.744    2.6104224    29.870831 
   76300    77.184889   -947.14016    202.86815    26651.396    2.6105545    29.870328 
   76400    76.134934   -945.67302    84.508947    26840.667    2.5921458    29.940871 
   76500    71.476489   -939.67073    28.953746    27015.268    2.5753926    30.005654 
   76600    73.693176   -939.33394    21.635718    27048.736     2.572206    30.018039 
   76700    77.068774   -941.39589    89.247109    26930.538    2.5834954    29.974251 
   76800    72.252165   -941.31116    182.30229     26794.85    2.5965781    29.923825 
   76900    70.740868   -945.01461    118.89505    26800.368    2.5960434    29.925879 
   77000      74.6726   -949.94936    28.061104    26842.567    2.5919622    29.941578 
   77100    74.551138   -950.14897    85.635479    26765.861    2.5993904     29.91303 
   77200    72.903858   -951.59248      151.488    26657.801    2.6099272     29.87272 
   77300    72.948894   -954.38537    125.16631    26637.004     2.611965     29.86495 
   77400    71.172241   -954.19661    95.486427    26669.614    2.6087712    29.877132 
   77500    72.051125   -953.01563    88.248518    26699.698    2.6058318    29.888362 
   77600    77.473632   -954.29966    83.341027    26705.553    2.6052605    29.890547 
   77700    71.904497   -950.14582    135.88428    26692.946    2.6064909    29.885842 
   77800    68.966774   -953.25892    67.549045    26723.727    2.6034886    29.897326 
   77900    71.242513   -954.46148    67.725954    26705.111    2.6053035    29.890382 
   78000    81.195518   -958.97382    98.050946    26620.676     2.613567    29.858846 
   78100    74.877439   -958.43002    159.41228    26537.667    2.6217421    29.827779 
   78200    68.395394   -952.84488    190.83287    26570.638    2.6184889    29.840127 
   78300    72.461999   -952.91473    43.774143     26762.79    2.5996886    29.911886 
   78400    75.050607   -951.30678   -28.116976     26870.45    2.5892726    29.951942 
   78500    71.912408   -952.60777    50.573022    26734.511    2.6024385    29.901347 
   78600    69.823007   -958.78642    155.55124    26485.525    2.6269035    29.808231 
   78700       68.792   -964.92436    194.12122    26323.687    2.6430537    29.747393 
   78800    64.730138   -967.78486    126.69086    26331.164    2.6423033    29.750209 
   78900    73.110748   -975.35178   -2.5990331    26383.197    2.6370921    29.769793 
   79000    73.559666   -976.38653    80.608476     26267.83    2.6486741    29.726337 
   79100    71.433816   -976.30898    215.27718    26109.102    2.6647764    29.666341 
   79200    70.508511   -975.52993     185.9509    26148.608    2.6607504    29.681296 
   79300    71.687489   -975.07716    25.849944    26347.223    2.6406927    29.756256 
   79400     71.68489   -969.71186    17.402232    26439.874    2.6314392    29.791094 
   79500    72.671385   -965.41065    125.74131    26384.709     2.636941    29.770361 
   79600    76.152544   -969.84353    103.07898    26351.327    2.6402815    29.757801 
   79700    69.793234    -971.4333     88.73735    26326.636    2.6427578    29.748503 
   79800    67.408446    -968.4346    149.45882    26292.342    2.6462047    29.735581 
   79900    72.934483   -970.21215    100.30259    26333.052    2.6421138     29.75092 
   80000    72.582043   -969.92105    57.999053    26384.588    2.6369531    29.770315 
   80100    69.111855   -972.32598    42.907784    26357.128    2.6397004    29.759984 
   80200    66.747617   -973.07149    143.76141    26232.735    2.6522175    29.713093 
   80300    68.862016   -972.99276    196.56525    26181.017    2.6574568    29.693553 
   80400    71.592245    -974.1983    88.805519    26295.239    2.6459132    29.736673 
   80500    67.248481   -966.86504    64.397707    26420.863    2.6333326    29.783953 
   80600    71.772897   -966.20506    32.707119    26478.006    2.6276495    29.805409 
   80700     75.11266   -969.58057    52.595755    26405.261    2.6348885    29.778089 
   80800    69.897493   -969.18337    187.30888    26250.457     2.650427    29.719782 
   80900    68.248939   -968.68316    212.52486    26245.625     2.650915    29.717958 
   81000    70.993995   -970.11064    41.034328    26439.131    2.6315132    29.790815 
   81100    70.995088   -971.38406   -63.824388     26538.72    2.6216381    29.828173 
   81200    64.631916   -972.47452    70.054623    26342.733    2.6411428    29.754565 
   81300    66.945684   -973.43067    276.74405    26089.908    2.6667369    29.659069 
   81400    71.420178   -974.86265     226.7147    26140.465    2.6615793    29.678215 
   81500    69.838845   -972.43845    17.759845     26424.23    2.6329971    29.785218 
   81600    66.219145   -968.45686   -56.737926    26573.879    2.6181696     29.84134 
   81700    71.093334   -971.66771    19.627278    26425.278    2.6328927    29.785611 
   81800    76.976379   -976.15558    205.76544    26132.864    2.6623535    29.675338 
   81900    70.695259   -979.69295    219.91308     26022.96    2.6735975    29.633678 
   82000    67.331111   -981.02645    85.941409    26130.153    2.6626297    29.674311 
   82100    66.124574    -979.5978     11.96786    26221.898    2.6533137       29.709 
   82200    71.346377   -983.02356    32.704426    26151.724    2.6604334    29.682475 
   82300     70.81321   -986.26566     153.0442    25965.759    2.6794872     29.61195 
   82400    65.936278   -986.78589    218.42853    25878.736    2.6884976    29.578832 
   82500    66.347259   -985.80829    137.84947    25996.252    2.6763443    29.623537 
   82600    63.688482   -975.30452    101.58361    26203.843    2.6551418     29.70218 
   82700     66.96468   -972.84381   -9.1348817    26395.051    2.6359078     29.77425 
   82800    68.929425   -971.92957    7.0881811      26392.3    2.6361825    29.773216 
   82900    68.864388   -973.52941    135.56634     26220.42    2.6534633    29.708442 
   83000    65.207079   -972.96897    214.63706    26117.907     2.663878    29.669675 
   83100    66.965461   -977.51472    73.402762    26204.374    2.6550881    29.702381 
   83200    66.161056   -978.91873  -0.91514056    26251.279    2.6503441    29.720092 
   83300    62.273911   -976.35751    114.96767    26130.293    2.6626153    29.674365 
   83400    68.945492   -978.79612    185.14525    26029.149    2.6729617    29.636028 
   83500    70.084558   -979.12166    137.32267    26076.597    2.6680982    29.654024 
   83600    67.081428    -979.3042    28.063577    26187.355    2.6568136    29.695949 
   83700    64.338646   -977.98496    50.067682    26180.219    2.6575378    29.693251 
   83800    65.141708   -977.18124     158.6455    26087.733    2.6669592    29.658245 
   83900    67.276507   -976.52451    178.03246     26097.17    2.6659949    29.661821 
   84000    66.806474   -974.56398    86.986443    26244.819    2.6509964    29.717654 
   84100    65.977721   -973.37869    5.4820486     26370.59    2.6383528     29.76505 
   84200     66.36218   -973.22506    45.234922     26328.46    2.6425746    29.749191 
   84300    72.009421   -977.29785    124.43505    26179.278    2.6576333    29.692896 
   84400     67.34247   -979.82902    180.70049    26071.902    2.6685786    29.652244 
   84500    62.747936    -976.5503    178.38154    26117.352    2.6639347    29.669465 
   84600    65.243768   -974.69175    61.137802    26301.188    2.6453147    29.738915 
   84700    67.675352   -972.98985   -5.5106965    26418.208    2.6335973    29.782955 
   84800    66.296164   -972.25935     60.03894    26346.206    2.6407946    29.755873 
   84900     66.08406   -978.13823    111.67177     26187.57    2.6567918    29.696031 
   85000    62.703093   -982.83328    152.93855    26051.086    2.6707109    29.644351 
   85100    63.783531   -982.69031    178.01716     26018.15    2.6740918    29.631852 
   85200    65.363419   -978.72381    129.40983    26129.209    2.6627259    29.673954 
   85300    65.969365    -974.6086    45.237864    26297.148    2.6457211    29.737392 
   85400    65.467185    -972.0197    30.772208    26369.224    2.6384895    29.764536 
   85500    64.347617   -968.03849    131.00885    26324.606    2.6429615    29.747739 
   85600    68.340142   -967.07505    165.95345    26331.365    2.6422831    29.750284 
   85700    67.823344   -967.29894    58.701936    26452.244    2.6302086     29.79574 
   85800    64.663228   -970.36313   -36.335893    26497.032    2.6257628    29.812547 
   85900    63.200674   -972.42439    85.710461    26299.569    2.6454775    29.738305 
   86000    65.109632   -974.89943    241.70852    26068.481    2.6689288    29.650947 
   86100    68.960911    -979.5337     172.3971    26072.038    2.6685647    29.652296 
   86200    62.307581   -979.73027    23.813932    26215.483    2.6539629    29.706578 
   86300    62.029218   -979.49648     5.485935    26238.447    2.6516402    29.715249 
   86400     64.91988   -979.70148    139.97882    26092.189    2.6665038    29.659933 
   86500    66.814738   -980.14868    219.16838    25999.517    2.6760082    29.624777 
   86600    63.097994   -979.54541    112.51026     26115.89    2.6640838    29.668911 
   86700    60.776089   -980.54056   -48.172542     26274.94    2.6479574    29.729019 
   86800    62.891653   -983.34092  -0.19696875    26183.098    2.6572456     29.69434 
   86900    65.304206   -986.86884    209.04897     25885.19    2.6878273    29.581291 
   87000    63.969145   -989.59048    299.15629    25741.422    2.7028391    29.526423 
   87100    61.044278   -988.86159    110.97485    25943.635    2.6817722    29.603537 
   87200    63.322938   -989.48547   -116.52422    26202.195    2.6553089    29.701557 
   87300    66.806924   -986.42906    13.066708    26107.062    2.6649847    29.665568 
   87400    64.199833   -983.24705    289.11046    25839.586     2.692571    29.563909 
   87500    64.850078   -987.80042    204.73454    25859.039    2.6905455    29.571326 
   87600    60.440048   -987.78417   -4.8200439    26077.376    2.6680184     29.65432 
   87700    61.021688   -985.96408   -29.824842    26135.121    2.6621235    29.676192 
   87800    63.668648   -986.47599    125.03807    25961.318    2.6799456    29.610262 
   87900    63.708206   -985.21725    264.22256     25823.31    2.6942681      29.5577 
   88000    63.161838   -985.73518    140.94975    25959.093    2.6801753    29.609416 
   88100    57.752391   -983.58989   -34.637186      26182.9    2.6572657    29.694265 
   88200    61.620881   -987.01567   -55.807191    26167.587    2.6588206    29.688475 
   88300    64.097494     -988.909    173.63757    25879.973    2.6883691    29.579303 
   88400    61.163797   -986.44891    345.99311    25722.752    2.7048008    29.519283 
   88500    62.955415   -987.50513     117.3578    25970.647    2.6789829    29.613808 
   88600    63.220582    -986.4712   -117.75704    26258.412    2.6496241    29.722784 
   88700    59.769962   -983.81254   -14.881431    26169.361    2.6586404    29.689146 
   88800    59.979015   -982.20899    261.27537    25886.826    2.6876574    29.581914 
   88900    65.897891   -984.19071    260.95471    25876.231    2.6887579    29.577878 
   89000    64.823631    -986.5033    9.5024104    26130.247    2.6626201    29.674347 
   89100    59.738738   -984.86367   -62.359145    26233.277    2.6521627    29.713297 
   89200    61.373887   -988.27913    50.508272    26043.523    2.6714865    29.641482 
   89300    63.476114   -992.97538    219.95992    25778.812    2.6989188    29.540713 
   89400    59.871189   -994.97731    218.09236    25728.857     2.704159    29.521618 
   89500    58.936895   -996.06634    61.141315    25876.406    2.6887397    29.577944 
   89600    59.250501   -992.58839    21.644931    25963.991    2.6796697    29.611278 
   89700    62.457536   -993.51112    61.006005    25909.071    2.6853498    29.590385 
   89800    62.859355   -996.41045     126.0319    25786.683     2.698095    29.543719 
[...]
  128600    23.286873   -1101.9706    80.301446     24055.52    2.8922643    28.867217 
  128700    22.172387   -1101.7431    89.074014    24042.345    2.8938492    28.861946 
  128800    21.005107   -1102.0106    113.71438    24013.292    2.8973503    28.850316 
  128900    22.465428   -1103.1729    111.43099    24003.327    2.8985532    28.846324 
  129000    22.742227    -1103.065    100.69141    24011.957    2.8975115    28.849781 
  129100    21.140286   -1103.8548    79.023148    24018.705    2.8966974    28.852483 
  129200    20.692987   -1103.8549    100.02766    23997.913    2.8992072    28.844155 
  129300    21.898282   -1104.6802       114.53    23976.121    2.9018422    28.835422 
  129400    22.180369   -1105.8125    102.81292    23974.674    2.9020174    28.834842 
  129500    20.399538    -1104.593    107.90326    23983.159    2.9009907    28.838243 
  129600    21.473254    -1104.722    87.471523    24000.527    2.8988914    28.845202 
  129700    22.106676    -1105.052    83.511795    23999.894    2.8989679    28.844949 
  129800    21.425129   -1105.5113    106.70948    23974.771    2.9020056    28.834881 
  129900    20.799119   -1106.4335      113.902    23957.098    2.9041464    28.827794 
  130000    20.131652   -1106.3428    110.18025    23960.805    2.9036972     28.82928 
  130100    20.454446   -1105.1836    101.68202     23981.63    2.9011756     28.83763 
  130200    22.056836   -1104.9783    83.485168    24003.356    2.8985497    28.846336 
  130300    20.583833   -1104.3786    94.180233    24002.362    2.8986697    28.845938 
  130400    19.931207   -1104.5458    108.24778    23990.899    2.9000547    28.841345 
  130500    21.080317   -1105.5853    93.448281     23989.75    2.9001936    28.840885 
  130600     20.57019   -1105.9118    91.419969     23980.94    2.9012591    28.837353 
  130700    19.499326   -1107.3849    96.527079    23957.025    2.9041552    28.827764 
  130800    20.837011   -1109.2054    99.330553    23926.099    2.9079091    28.815354 
  130900    20.172411   -1109.9531    117.00065    23895.684    2.9116103    28.803139 
  131000    19.230818   -1109.7519    121.47063    23890.918    2.9121912    28.801224 
  131100    20.014973   -1110.3725    89.868721    23916.082     2.909127    28.811333 
  131200    19.854787   -1110.1862    88.256586    23930.043    2.9074298    28.816938 
  131300    19.206024   -1108.5668    115.52379    23930.004    2.9074346    28.816922 
  131400    20.261252   -1107.7391     104.4005    23949.596    2.9050561    28.824784 
  131500    20.327623   -1108.4057    71.079019    23972.124    2.9023261    28.833819 
  131600    18.791821   -1107.8293    87.621797    23954.963    2.9044053    28.826937 
  131700    18.992639   -1108.6399    119.67759    23918.132    2.9088776    28.812156 
  131800    19.286806   -1108.8294    129.45791    23910.796    2.9097701     28.80921 
  131900    19.004966   -1107.8963     102.4551    23948.371    2.9052047    28.824293 
  132000    18.486389   -1107.6422    63.945538    23989.189    2.9002614     28.84066 
  132100    18.237418   -1108.0039    73.466567    23977.632    2.9016594    28.836027 
  132200    19.187049    -1109.498     114.8123    23925.319    2.9080038    28.815041 
  132300    19.594237   -1110.3339    132.85157    23895.028    2.9116903    28.802875 
  132400    18.177953   -1110.7706     97.91432    23912.904    2.9095137    28.810056 
  132500    18.101693   -1111.0055    70.955674     23930.44    2.9073816    28.817097 
  132600    18.449076   -1111.4831    93.349493     23905.79    2.9103795    28.807199 
  132700    18.152005   -1111.4596    139.08362    23871.622    2.9145452    28.793468 
  132800    18.662724    -1110.832    125.44814    23894.063    2.9118079    28.802488 
  132900    18.921509   -1110.4315    64.059307    23953.372    2.9045981    28.826299 
  133000    17.298412    -1109.896    55.943195    23962.494    2.9034924    28.829958 
  133100    17.453097   -1110.4279    109.98035    23905.891    2.9103672    28.807239 
  133200    18.389481   -1111.5767    144.83208    23860.878    2.9158575    28.789148 
  133300    17.530369   -1112.2958    108.72288    23880.091    2.9135115    28.796873 
  133400    16.648483   -1111.9566    58.449602    23915.286    2.9092238    28.811013 
  133500    17.706694   -1112.6602    69.663129    23891.681    2.9120981    28.801531 
  133600    17.683015   -1113.0276    140.07542    23826.177    2.9201042    28.775185 
  133700    16.185908   -1113.2437    150.74341    23817.944    2.9211136     28.77187 
  133800    16.478432   -1113.6953    72.580295    23881.538    2.9133349    28.797454 
  133900    17.992447   -1114.1434    45.550575     23907.17    2.9102115    28.807753 
  134000     17.79557   -1114.2947    111.20044    23855.292    2.9165403    28.786901 
  134100    16.600842   -1114.7588    149.83488    23816.613    2.9212769    28.771334 
  134200    16.546508   -1114.6543    113.04834     23850.32    2.9171483    28.784901 
  134300    16.584289   -1114.2005     58.53532    23904.689    2.9105135    28.806757 
  134400    17.014738   -1113.8262    61.058539    23899.003    2.9112059    28.804473 
  134500    15.837118   -1114.4832     122.2411     23835.56    2.9189547    28.778962 
  134600    15.646976   -1114.4588    148.02064    23804.265    2.9227922    28.766361 
  134700    17.520557   -1115.5175    92.484233    23840.143    2.9183935    28.780806 
  134800    16.379467   -1114.5453    69.111934    23870.858    2.9146385    28.793161 
  134900    15.303718   -1114.4246    82.874629    23854.633    2.9166208    28.786636 
  135000    16.203999   -1115.6339    114.24309    23811.362    2.9219211    28.769219 
  135100    16.195149   -1116.0253    130.11011     23790.07    2.9245362    28.760642 
  135200    14.982347    -1116.802    96.684898    23811.161    2.9219458    28.769138 
  135300    15.153639   -1116.9242    75.166128    23829.523    2.9196941    28.776532 
  135400    15.706984   -1117.3468    92.512213    23812.788    2.9217461    28.769794 
  135500    15.614406   -1117.3343      123.153    23785.923    2.9250461     28.75897 
  135600    15.227842    -1117.478    114.91153    23790.368    2.9244995    28.760762 
  135700    13.897423   -1117.7244    79.030287    23815.285    2.9214398    28.770799 
  135800    14.404052    -1118.219     72.74887    23809.649    2.9221313    28.768529 
  135900     15.74565    -1119.796    106.21149    23764.021    2.9277419    28.750141 
  136000    14.971566   -1119.2656     147.4633    23730.473    2.9318809    28.736605 
  136100    14.287022   -1118.4652    121.59625    23763.743    2.9277762    28.750029 
  136200    14.645922   -1117.9326    61.096022    23827.571    2.9199333    28.775746 
  136300    14.723711    -1117.369    60.215879    23837.147    2.9187603      28.7796 
  136400    14.993702   -1118.5984    106.68398    23785.982    2.9250388    28.758994 
  136500    14.429577    -1119.126    148.18706     23743.72    2.9302451    28.741952 
  136600    13.974823   -1118.5416    123.07837    23770.955    2.9268878    28.752937 
  136700    14.392771   -1118.0111    58.960786    23831.307    2.9194757     28.77725 
  136800    14.396927   -1118.2231    54.720543    23833.396    2.9192197    28.778091 
  136900    13.908622   -1118.7051    119.80287    23771.351    2.9268391    28.753097 
  137000    13.880469   -1119.3494    152.96949    23736.461    2.9311412    28.739022 
  137100    14.116795    -1119.607    103.58302    23775.745    2.9262982    28.754868 
  137200    13.910631   -1119.5812    48.390327    23821.024    2.9207359     28.77311 
  137300    13.529886   -1120.5454    65.955153     23791.77    2.9243272    28.761327 
  137400     13.53246   -1122.1033     136.0937    23711.238    2.9342593    28.728839 
  137500    12.942934   -1121.2632    169.10121    23684.258    2.9376019    28.717938 
  137600    12.604987   -1120.4522    96.453994    23754.731    2.9288868    28.746394 
  137700    13.825329   -1119.5547    27.902391    23821.958    2.9206214    28.773486 
  137800    13.442279   -1119.4045    69.132176     23786.08    2.9250268    28.759034 
  137900    12.724362   -1119.8137    154.69484    23704.617    2.9350789    28.726165 
  138000    13.093808   -1120.7808    147.78866    23697.777    2.9359261    28.723401 
  138100    12.462242   -1121.1262    71.420133    23758.603    2.9284096    28.747956 
  138200     12.33881    -1121.564    44.484048    23778.794     2.925923    28.756097 
  138300    12.503648   -1122.5589    107.00284    23719.959    2.9331804    28.732361 
  138400    12.402099   -1122.7576     162.6967    23672.461    2.9390658    28.713169 
  138500    12.674331   -1122.8143    112.39203    23713.561    2.9339718    28.729777 
  138600    12.441502   -1121.7231    46.061365    23775.851    2.9262852    28.754911 
  138700    11.273466   -1121.9762     55.01939    23761.148    2.9280959    28.748982 
  138800    12.069264   -1123.7656    125.91881    23680.916    2.9380164    28.716588 
  138900    12.634111   -1125.2933    162.75834     23636.79    2.9435013     28.69874 
  139000     11.85617   -1125.1171    109.90515    23681.981    2.9378843    28.717018 
  139100    11.829041   -1125.1808    41.528149    23740.399     2.930655    28.740612 
  139200    11.802679   -1125.8183    64.307758    23716.178     2.933648    28.730834 
  139300    11.563476   -1126.7882    143.09318    23641.503    2.9429144    28.700648 
  139400    10.847495    -1126.771    159.56201    23628.836    2.9444921    28.695521 
  139500    10.998054   -1126.4104    81.198958    23699.985    2.9356525    28.724294 
  139600    12.031301   -1126.4757    31.249484    23745.846    2.9299827     28.74281 
  139700     11.25722   -1126.2498    90.515192    23697.027     2.936019    28.723098 
  139800    10.814565   -1127.1773    153.68032    23632.984    2.9439752      28.6972 
  139900     11.32997    -1127.281    131.81154    23643.336    2.9426862    28.701389 
  140000    11.068149    -1126.469    68.074768    23699.248    2.9357438    28.723996 
  140100    10.591728   -1126.6557    51.835702    23709.776    2.9344402    28.728249 
  140200    10.772399   -1127.7938    107.01195    23651.726    2.9416424    28.704784 
  140300    10.381207   -1128.4644    158.93888    23603.933    2.9475986    28.685436 
  140400    10.077092   -1128.5154     121.5178    23638.541    2.9432832    28.699449 
  140500    10.687663   -1127.7741    55.003408    23705.328    2.9349908    28.726452 
  140600    10.863762   -1127.7042    52.508668    23709.341    2.9344941    28.728073 
  140700    10.488135   -1128.8195    111.66664    23645.132    2.9424627    28.702116 
  140800    10.235899   -1129.9122     153.7731    23597.257    2.9484325    28.682731 
  140900    10.033439   -1129.8031    119.71802    23626.043    2.9448402     28.69439 
  141000     9.973214   -1129.2866    56.678423    23683.329     2.937717    28.717563 
  141100     9.650714   -1129.7482    57.802464    23678.768    2.9382829    28.715719 
  141200    9.1671493   -1129.7219    128.45902    23616.323    2.9460522    28.690454 
  141300     9.704951   -1130.6685    150.04608    23592.915    2.9489751    28.680972 
  141400    10.464997   -1130.5514    95.556598    23641.071    2.9429682    28.700473 
  141500    9.1542955   -1129.2839    51.452345     23684.77    2.9375383    28.718145 
  141600    9.0530039   -1129.5869    72.516516    23657.724    2.9408967     28.70721 
  141700    9.7122126   -1130.8162     134.6653    23590.526    2.9492738    28.680004 
  141800    9.1298609   -1131.0894    152.77218    23573.022    2.9514637    28.672909 
  141900    8.8720821    -1130.473    90.404628    23629.475    2.9444124    28.695779 
  142000    9.0705026   -1130.3533     42.40881    23671.362    2.9392022    28.712725 
  142100    8.5909661   -1130.4506    87.125148    23632.203    2.9440725    28.696884 
  142200     8.046632   -1131.4759    145.77812    23573.086    2.9514558    28.672935 
  142300    8.9758408   -1132.5502    129.19303    23577.194    2.9509415      28.6746 
  142400    8.7324905   -1131.9848    80.471076    23624.415    2.9450431    28.693731 
  142500    7.8206107   -1131.4368     60.12068    23643.996    2.9426041    28.701656 
  142600    8.5790073    -1132.368    91.420927      23605.7     2.947378    28.686152 
  142700    8.4126169   -1133.3198    141.08931    23555.899    2.9536092    28.665965 
  142800    7.7853228   -1133.0375    128.93419    23564.721    2.9525034    28.669543 
  142900    7.8124922   -1132.7137    68.374433    23614.558    2.9462723     28.68974 
  143000    8.1329024   -1133.2078    59.989821    23620.627    2.9455154    28.692197 
  143100    8.2239396   -1133.1361    122.00783    23572.031    2.9515878    28.672507 
  143200    7.6801464   -1133.2696    147.53917    23553.116    2.9539582    28.664836 
  143300    7.6040399   -1133.7732     90.69591     23597.46    2.9484072    28.682814 
  143400    7.4487525   -1133.2984    51.168904    23629.812    2.9443705    28.695916 
  143500    7.2988092   -1133.9459    79.438341    23592.633    2.9490104    28.680858 
  143600    7.2331049   -1134.9139     136.8589    23525.656    2.9574062    28.653691 
  143700    7.1119831   -1135.4233    146.90435    23509.967    2.9593797     28.64732 
  143800    7.1841768   -1134.9887     91.52827    23560.451    2.9530385    28.667811 
  143900    7.3173841   -1134.1406    53.879826    23601.437    2.9479103    28.684425 
  144000    7.0265081    -1133.872    87.780012    23578.631    2.9507616    28.675183 
  144100    6.8203613   -1134.7493    131.67557    23536.793    2.9560068    28.658212 
  144200    6.8335756   -1135.6537    121.49917    23537.899    2.9558679    28.658661 
  144300    6.5557235   -1135.3129    85.287009    23570.533    2.9517755    28.671899 
  144400    6.4402562   -1135.2767    75.422453    23582.589    2.9502664    28.676787 
  144500    6.5503291   -1135.7716    102.43407    23559.294    2.9531836    28.667342 
  144600    6.6567352   -1136.3705    121.01115    23538.651    2.9557734    28.658967 
  144700    6.7203208   -1136.6879    103.44118    23546.674    2.9547663    28.662222 
  144800    6.2492842   -1136.5303    84.111611    23560.901    2.9529822    28.667993 
  144900    5.9499116   -1136.5878    90.014535    23553.324    2.9539322     28.66492 
  145000    6.0875415   -1137.1347    107.93244    23530.678     2.956775     28.65573 
  145100    5.7661048   -1136.9496    118.28809    23519.364    2.9581974    28.651137 
  145200    5.5494031     -1137.11    99.074876    23533.018     2.956481     28.65668 
  145300    5.8886136   -1137.2817    79.507997    23546.098    2.9548386    28.661988 
  145400    5.6511519   -1137.8275    91.416506    23530.943    2.9567417    28.655838 
  145500    5.3596445   -1138.0898    115.80007    23504.235    2.9601014    28.644992 
  145600    5.6062429   -1138.9894    110.89831    23497.836    2.9609075    28.642393 
  145700    5.2461763   -1139.0246    96.055037    23507.892     2.959641    28.646477 
  145800    4.9562854   -1138.7641    92.433042    23513.756    2.9589029    28.648859 
  145900    5.1975275    -1138.564    99.339054    23509.423    2.9594483    28.647099 
  146000    5.3494493   -1138.6004    105.23515    23503.455    2.9601997    28.644675 
  146100    4.8435013   -1138.4225    105.90638    23505.033     2.960001    28.645316 
  146200    4.8289438   -1138.3047    96.423387    23515.026    2.9587431    28.649375 
  146300     4.776057   -1138.4142    88.588818    23520.356    2.9580726    28.651539 
  146400    4.5181759    -1138.883    95.998106    23509.444    2.9594456    28.647108 
  146500    4.5847812   -1139.1601    109.20841    23492.125    2.9616273    28.640072 
  146600    4.5164153   -1139.5368    107.29089    23486.934    2.9622819    28.637962 
  146700    4.4531223   -1139.4453    97.344669    23492.141    2.9616254    28.640078 
  146800    4.2698366   -1139.7363     91.89338    23492.689    2.9615562    28.640301 
  146900    4.1388308   -1140.0359    99.559384    23481.372    2.9629835    28.635701 
  147000    4.1948246   -1140.6703    105.10534    23468.127    2.9646559    28.630316 
  147100    4.0153385   -1140.6691    107.63761    23462.683    2.9653437    28.628102 
  147200    3.7240803   -1140.6162    101.80425    23468.317    2.9646319    28.630393 
  147300    3.7506627   -1140.8117    91.411687    23476.217    2.9636343    28.633605 
  147400    3.6882337   -1141.2068    92.852986    23472.267    2.9641329       28.632 
  147500    3.5412657   -1141.5061    107.58709    23458.195    2.9659111    28.626277 
  147600    3.5639116   -1141.6686    110.31785    23453.544    2.9664993    28.624384 
  147700    3.4451064   -1142.0216    95.705853    23461.857    2.9654481    28.627766 
  147800     3.191701   -1141.6709    92.947811    23465.631    2.9649712    28.629301 
  147900    3.1553565   -1142.2886    95.297532    23459.183    2.9657862    28.626678 
  148000    3.1526991   -1142.7415     102.7805    23447.365     2.967281    28.621871 
  148100    2.9907064   -1143.2825    107.01027     23439.36    2.9682943    28.618613 
  148200    2.8559705   -1143.4817    101.92191    23441.108    2.9680731    28.619324 
  148300    2.7183277   -1143.3285    95.877025    23445.511    2.9675156    28.621116 
  148400    2.5757829   -1143.3034    96.523845    23444.305    2.9676683    28.620626 
  148500    2.5933469   -1143.4953     99.91793    23438.684      2.96838    28.618338 
  148600    2.5236476   -1144.0353     101.9052    23432.374    2.9691794    28.615769 
  148700    2.4424736    -1144.466    102.45855    23428.937    2.9696149     28.61437 
  148800    2.2936982   -1144.6381    99.735709    23429.349    2.9695626    28.614538 
  148900    2.2235718   -1145.0997    95.355837    23428.441    2.9696777    28.614169 
  149000    2.1214772   -1145.2577    99.319263    23421.393    2.9705714    28.611299 
  149100    2.0030284   -1145.4212    104.67825    23413.359    2.9715907    28.608027 
  149200    1.9086778   -1145.3742    103.60615    23412.191    2.9717389    28.607551 
  149300     1.811951   -1145.6248    95.468904    23416.171    2.9712338    28.609172 
  149400    1.7391323   -1145.9802    93.544385    23414.072    2.9715003    28.608317 
  149500    1.6470401   -1145.9025    104.24921    23402.965    2.9729105    28.603793 
  149600    1.4834419   -1145.6299    110.44282    23397.164    2.9736475     28.60143 
  149700    1.3997268   -1145.6165    97.799817    23405.516    2.9725865    28.604832 
  149800     1.381793   -1145.7649    85.756121    23411.493    2.9718276    28.607267 
  149900    1.2710329    -1146.143     96.02768    23398.065    2.9735331    28.601797 
  150000    1.1256265   -1146.5014     115.1776     23378.43    2.9760305    28.593794 
Loop time of 27.9882 on 1 procs for 150000 steps with 500 atoms

Performance: 463.052 ns/day, 0.052 hours/ns, 5359.400 timesteps/s
99.1% CPU use with 1 MPI tasks x no OpenMP threads

MPI task timing breakdown:
Section |  min time  |  avg time  |  max time  |%varavg| %total
---------------------------------------------------------------
Pair    | 22.522     | 22.522     | 22.522     |   0.0 | 80.47
Neigh   | 0.48491    | 0.48491    | 0.48491    |   0.0 |  1.73
Comm    | 0.91067    | 0.91067    | 0.91067    |   0.0 |  3.25
Output  | 0.8341     | 0.8341     | 0.8341     |   0.0 |  2.98
Modify  | 2.8684     | 2.8684     | 2.8684     |   0.0 | 10.25
Other   |            | 0.3677     |            |       |  1.31

Nlocal:    500 ave 500 max 500 min
Histogram: 1 0 0 0 0 0 0 0 0 0
Nghost:    1414 ave 1414 max 1414 min
Histogram: 1 0 0 0 0 0 0 0 0 0
Neighs:    12275 ave 12275 max 12275 min
Histogram: 1 0 0 0 0 0 0 0 0 0

Total # of neighbors = 12275
Ave neighs/atom = 24.55
Neighbor list builds = 1044
Dangerous builds = 0
Total wall time: 0:00:28
