LAMMPS (7 Aug 2019)
Lattice spacing in x,y,z = 5.58 5.58 5.58
Created orthogonal box = (0 0 0) to (27.9 27.9 27.9)
  1 by 1 by 1 MPI processor grid
Created 500 atoms
  create_atoms CPU = 0.000680923 secs
WARNING: Using 'neigh_modify every 1 delay 0 check yes' setting during minimization (../min.cpp:168)
Neighbor list info ...
  update every 1 steps, delay 0 steps, check yes
  max neighbors/atom: 2000, page size: 100000
  master list distance cutoff = 8
  ghost atom cutoff = 8
  binsize = 4, bins = 7 7 7
  1 neighbor lists, perpetual/occasional/extra = 1 0 0
  (1) pair lj/cut, perpetual
      attributes: half, newton on
      pair build: half/bin/atomonly/newton
      stencil: half/bin/3d/newton
      bin: standard
Setting up cg style minimization ...
  Unit style    : real
  Current step  : 0
WARNING: Energy due to 1 extra global DOFs will be included in minimizer energies
Per MPI rank memory allocation (min/avg/max) = 5.501 | 5.501 | 5.501 Mbytes
Step Temp PotEng Press Volume Density Lx 
       0            0   -1315.9596     177.6795    21717.639    3.2036134         27.9 
      10            0   -1316.0596          100    21767.061    3.1963396    27.921148 
Loop time of 0.00707889 on 1 procs for 10 steps with 500 atoms

97.8% CPU use with 1 MPI tasks x no OpenMP threads

Minimization stats:
  Stopping criterion = force tolerance
  Energy initial, next-to-last, final = 
        -1315.95961028     -1315.98751025     -1315.98751025
  Force two-norm initial, final = 73.8102 6.78427e-11
  Force max component initial, final = 73.8102 6.78337e-11
  Final line search alpha, max atom move = 1 6.78337e-11
  Iterations, force evaluations = 10 13

MPI task timing breakdown:
Section |  min time  |  avg time  |  max time  |%varavg| %total
---------------------------------------------------------------
Pair    | 0.0057232  | 0.0057232  | 0.0057232  |   0.0 | 80.85
Neigh   | 0          | 0          | 0          |   0.0 |  0.00
Comm    | 0.00010967 | 0.00010967 | 0.00010967 |   0.0 |  1.55
Output  | 0          | 0          | 0          |   0.0 |  0.00
Modify  | 0          | 0          | 0          |   0.0 |  0.00
Other   |            | 0.001246   |            |       | 17.60

Nlocal:    500 ave 500 max 500 min
Histogram: 1 0 0 0 0 0 0 0 0 0
Nghost:    1188 ave 1188 max 1188 min
Histogram: 1 0 0 0 0 0 0 0 0 0
Neighs:    13500 ave 13500 max 13500 min
Histogram: 1 0 0 0 0 0 0 0 0 0

Total # of neighbors = 13500
Ave neighs/atom = 27
Neighbor list builds = 0
Dangerous builds = 0
Setting up Verlet run ...
  Unit style    : real
  Current step  : 10
  Time step     : 1
Per MPI rank memory allocation (min/avg/max) = 4.376 | 4.376 | 4.376 Mbytes
Step Temp PotEng Press Volume Density Lx 
      10            0   -1316.0596          100    21767.061    3.1963396    27.921148 
     100 2.8998854e-26   -1316.0596          100    21767.061    3.1963396    27.921148 
     200 1.5884498e-25   -1316.0596          100    21767.061    3.1963396    27.921148 
     300 5.1748638e-25   -1316.0596          100    21767.061    3.1963396    27.921148 
     400 1.3395252e-24   -1316.0596          100    21767.061    3.1963396    27.921148 
     500 3.9669368e-24   -1316.0596          100    21767.061    3.1963396    27.921148 
     600 1.2315137e-23   -1316.0596          100    21767.061    3.1963396    27.921148 
     700 2.7311678e-23   -1316.0596          100    21767.061    3.1963396    27.921148 
     800 5.2222737e-23   -1316.0596          100    21767.061    3.1963396    27.921148 
     900 9.4393003e-23   -1316.0596          100    21767.061    3.1963396    27.921148 
    1000 8.2189378e-23   -1316.0596          100    21767.061    3.1963396    27.921148 
    1100 1.8193076e-22   -1316.0596          100    21767.061    3.1963396    27.921148 
    1200 3.7225658e-22   -1316.0596          100    21767.061    3.1963396    27.921148 
    1300 3.6933887e-22   -1316.0596          100    21767.061    3.1963396    27.921148 
    1400 3.9087302e-22   -1316.0596          100    21767.061    3.1963396    27.921148 
    1500 1.2547065e-21   -1316.0596          100    21767.061    3.1963396    27.921148 
    1600 2.3544924e-21   -1316.0596          100    21767.061    3.1963396    27.921148 
    1700 1.8417874e-21   -1316.0596          100    21767.061    3.1963396    27.921148 
    1800 2.6912233e-21   -1316.0596          100    21767.061    3.1963396    27.921148 
    1900 8.6606111e-21   -1316.0596          100    21767.061    3.1963396    27.921148 
    2000 1.0339394e-20   -1316.0596          100    21767.061    3.1963396    27.921148 
    2100 5.5044694e-21   -1316.0596          100    21767.061    3.1963396    27.921148 
    2200 2.5040208e-20   -1316.0596          100    21767.061    3.1963396    27.921148 
    2300 6.1467695e-20   -1316.0596          100    21767.061    3.1963396    27.921148 
    2400 4.1477533e-20   -1316.0596          100    21767.061    3.1963396    27.921148 
    2500 2.8667072e-20   -1316.0596          100    21767.061    3.1963396    27.921148 
    2600 1.8701588e-19   -1316.0596          100    21767.061    3.1963396    27.921148 
    2700 3.1657164e-19   -1316.0596          100    21767.061    3.1963396    27.921148 
    2800 2.0804858e-19   -1316.0596          100    21767.061    3.1963396    27.921148 
    2900 5.2624985e-19   -1316.0596          100    21767.061    3.1963396    27.921148 
    3000  1.43654e-18   -1316.0596          100    21767.061    3.1963396    27.921148 
    3100 1.4897455e-18   -1316.0596          100    21767.061    3.1963396    27.921148 
    3200 1.7251149e-18   -1316.0596          100    21767.061    3.1963396    27.921148 
    3300 5.4288479e-18   -1316.0596          100    21767.061    3.1963396    27.921148 
    3400 8.6256685e-18   -1316.0596          100    21767.061    3.1963396    27.921148 
    3500 8.9905858e-18   -1316.0596          100    21767.061    3.1963396    27.921148 
    3600 2.3880187e-17   -1316.0596          100    21767.061    3.1963396    27.921148 
    3700 5.1334717e-17   -1316.0596          100    21767.061    3.1963396    27.921148 
    3800 4.9525835e-17   -1316.0596          100    21767.061    3.1963396    27.921148 
    3900 6.4089731e-17   -1316.0596          100    21767.061    3.1963396    27.921148 
    4000 2.1882425e-16   -1316.0596          100    21767.061    3.1963396    27.921148 
    4100 3.9687669e-16   -1316.0596          100    21767.061    3.1963396    27.921148 
    4200 4.3402957e-16   -1316.0596          100    21767.061    3.1963396    27.921148 
    4300 8.1696192e-16   -1316.0596          100    21767.061    3.1963396    27.921148 
    4400 1.9643877e-15   -1316.0596          100    21767.061    3.1963396    27.921148 
    4500 3.1502133e-15   -1316.0596          100    21767.061    3.1963396    27.921148 
    4600 4.7391861e-15   -1316.0596          100    21767.061    3.1963396    27.921148 
    4700 9.8100027e-15   -1316.0596          100    21767.061    3.1963396    27.921148 
    4800 2.1169544e-14   -1316.0596          100    21767.061    3.1963396    27.921148 
    4900 4.3994683e-14   -1316.0596          100    21767.061    3.1963396    27.921148 
    5000 9.2697983e-14   -1316.0596          100    21767.061    3.1963396    27.921148 
    5100 1.9467803e-13   -1316.0596          100    21767.061    3.1963396    27.921148 
    5200 4.3818919e-13   -1316.0596          100    21767.061    3.1963396    27.921148 
    5300 1.0716901e-12   -1316.0596          100    21767.061    3.1963396    27.921148 
    5400 2.6173976e-12   -1316.0596          100    21767.061    3.1963396    27.921148 
    5500 6.389722e-12   -1316.0596          100    21767.061    3.1963396    27.921148 
    5600 1.6068673e-11   -1316.0596          100    21767.061    3.1963396    27.921148 
    5700 4.0895216e-11   -1316.0596          100    21767.061    3.1963396    27.921148 
    5800 1.0447457e-10   -1316.0596          100    21767.061    3.1963396    27.921148 
    5900 2.7033312e-10   -1316.0596          100    21767.061    3.1963396    27.921148 
    6000 7.0480914e-10   -1316.0596          100    21767.061    3.1963396    27.921148 
    6100 1.8426799e-09   -1316.0596          100    21767.061    3.1963396    27.921148 
    6200 4.8525865e-09   -1316.0596          100    21767.061    3.1963396    27.921148 
    6300 1.286334e-08   -1316.0596          100    21767.061    3.1963396    27.921148 
    6400 3.4183317e-08   -1316.0596          100    21767.061    3.1963396    27.921148 
    6500 9.1160647e-08   -1316.0596          100    21767.061    3.1963396    27.921148 
    6600 2.4444054e-07   -1316.0596          100    21767.061    3.1963396    27.921148 
    6700 6.5825558e-07   -1316.0596          100    21767.061    3.1963396    27.921148 
    6800 1.7783946e-06   -1316.0596          100    21767.061    3.1963396    27.921148 
    6900 4.8228756e-06   -1316.0596          100    21767.062    3.1963396    27.921148 
    7000 1.3131544e-05   -1316.0596          100    21767.062    3.1963396    27.921148 
    7100 3.5882696e-05   -1316.0596          100    21767.062    3.1963396    27.921148 
    7200 9.8392824e-05   -1316.0596          100    21767.062    3.1963395    27.921148 
    7300 0.00027075667   -1316.0595          100    21767.063    3.1963394    27.921148 
    7400 0.00074760859   -1316.0594    100.00001    21767.064    3.1963392    27.921149 
    7500  0.002070736   -1316.0592    100.00002    21767.069    3.1963384    27.921151 
    7600  0.005750411   -1316.0585    100.00006    21767.084    3.1963363    27.921157 
    7700  0.015987113   -1316.0566    100.00017    21767.123    3.1963306    27.921174 
    7800  0.044319771   -1316.0513    100.00047    21767.231    3.1963147     27.92122 
    7900   0.12116341   -1316.0365    100.00118    21767.527    3.1962712    27.921347 
    8000   0.31685956   -1315.9967    100.00239    21768.306    3.1961569     27.92168 
    8100   0.73128041   -1315.8941     100.0016    21770.129    3.1958893    27.922459 
    8200    1.2335499   -1315.6653    99.991399    21773.342    3.1954176    27.923833 
    8300    1.1642438   -1315.2878    99.989374    21776.805    3.1949094    27.925313 
    8400   0.75346591   -1314.8619    99.996822     21780.03    3.1944364    27.926692 
    8500    0.6567702   -1314.4321    100.00021    21783.935    3.1938638     27.92836 
    8600   0.81186836   -1313.9216    99.998075    21789.128    3.1931025     27.93058 
    8700   0.95104989   -1313.2798     99.99396    21795.552    3.1921615    27.933324 
    8800   0.93982164   -1312.2659    99.841776    21803.856    3.1909457    27.936871 
    8900   0.84843469   -1310.6247     99.62169    21814.864    3.1893355    27.941572 
    9000   0.78838337   -1307.9521    99.178742    21830.426    3.1870619    27.948215 
    9100   0.76747095   -1305.4448    100.48657    21844.507    3.1850076    27.954222 
    9200    0.7629108   -1302.9865    100.40859    21859.601    3.1828084    27.960659 
    9300   0.77774231   -1300.2551    98.257739    21877.393    3.1802199    27.968243 
    9400   0.83951211   -1297.5267    99.896761    21892.694    3.1779971    27.974762 
    9500   0.98076941   -1295.6927    103.13344    21902.896    3.1765169    27.979107 
    9600    1.1594265   -1293.8909    98.574417     21916.99    3.1744743    27.985107 
    9700    1.1869775   -1293.3512     98.74997    21920.415    3.1739783    27.986564 
    9800    1.0723535   -1293.9229     102.2592    21914.161     3.174884    27.983903 
    9900    1.0778937   -1295.1879    101.53295    21905.622    3.1761217    27.980268 
   10000    1.1525805   -1297.7451    98.297367    21891.774    3.1781307     27.97437 
   10100    1.1618002   -1300.6707    99.331721    21872.664    3.1809074    27.966228 
   10200    1.1412672   -1304.0541    102.85732    21850.033     3.184202     27.95658 
   10300    1.1241166   -1307.5371    100.29908    21831.424    3.1869163     27.94864 
   10400    1.1008127   -1310.2751    97.396582    21816.634    3.1890768    27.942328 
   10500    1.0682833   -1312.3328    97.918535    21803.058    3.1910625     27.93653 
   10600    1.0358437   -1313.6278    99.869026    21792.371    3.1926274    27.931965 
   10700    1.0076756   -1314.3279    101.33573    21785.087    3.1936949    27.928853 
   10800   0.98962691   -1314.8312    102.35547      21779.5    3.1945142    27.926465 
   10900   0.98137682    -1315.246    101.83186    21775.805    3.1950561    27.924886 
   11000   0.97618254   -1315.5752    99.976708    21773.814    3.1953483    27.924035 
   11100   0.96963989   -1315.8159     97.94173    21772.793    3.1954982    27.923598 
   11200   0.96435061   -1315.9645    97.112433    21771.876    3.1956328    27.923206 
   11300   0.96379344   -1316.0176    98.184034    21770.651    3.1958126    27.922682 
   11400   0.96543599   -1315.9708    100.61954     21769.51      3.19598    27.922195 
   11500   0.96409855   -1315.8217    102.88638    21769.476     3.195985     27.92218 
   11600   0.96000213   -1315.5735    103.39771    21771.554      3.19568    27.923069 
   11700   0.95647686    -1315.234    101.60438    21776.027    3.1950236    27.924981 
   11800   0.95099673   -1314.8104    98.501693    21782.165    3.1941233    27.927604 
   11900    0.9374432   -1314.3071    96.119485    21788.585    3.1931822    27.930348 
   12000    0.9153977   -1313.7283    96.220906    21794.093    3.1923752    27.932701 
   12100   0.89025225   -1312.7641    99.374036    21799.537    3.1915779    27.935026 
   12200   0.86686825   -1311.3573    102.74136    21806.961    3.1904914    27.938197 
   12300   0.84829186   -1309.2857     103.4285    21819.105    3.1887156    27.943383 
   12400   0.84331457   -1307.1385    100.12964    21834.407    3.1864809    27.949913 
   12500   0.87398728   -1304.5156     94.84704    21853.118    3.1837526    27.957895 
   12600   0.95293198   -1302.3024    97.583635    21864.904    3.1820364     27.96292 
   12700    1.0644979   -1300.6762    104.80108    21870.914     3.181162    27.965482 
   12800    1.1470271   -1299.2241    104.80711    21879.649     3.179892    27.969205 
   12900    1.1342669   -1298.9065    97.772486    21885.892     3.178985    27.971864 
   13000    1.0924009   -1299.5308    94.737556    21882.684    3.1794509    27.970498 
   13100    1.0998802   -1301.2677    100.63288    21866.918    3.1817433    27.963779 
   13200     1.112897   -1304.3754    107.65926    21843.933    3.1850913    27.953978 
   13300    1.1000613   -1307.5176    100.51765    21830.119    3.1871068    27.948083 
   13400    1.0773511   -1310.1866    91.331662    21820.095    3.1885709    27.943805 
   13500    1.0516178   -1312.3397    92.347107    21806.261    3.1905938    27.937898 
   13600     1.025413   -1313.5701    101.54724    21791.601    3.1927403    27.931636 
   13700    1.0057976   -1314.2029    110.09115    21780.436    3.1943769    27.926865 
   13800   0.99454328   -1314.6661    112.18561    21774.649    3.1952258    27.924392 
   13900   0.98863524    -1315.066    105.95516    21774.919    3.1951861    27.924507 
   14000   0.98384387   -1315.4014    95.062616    21778.828    3.1946127    27.926178 
   14100   0.97833168   -1315.6656    86.646566    21781.764    3.1941821    27.927433 
   14200   0.97196157   -1315.8496    86.654243    21779.933    3.1944506     27.92665 
   14300   0.96600396   -1315.9437    95.760743    21773.016    3.1954655    27.923694 
   14400   0.96250417    -1315.941    108.51721    21764.677    3.1966898    27.920128 
   14500   0.96147137   -1315.8401    116.50206    21760.428    3.1973139    27.918311 
   14600   0.95980193   -1315.6425    113.83892    21764.069    3.1967791    27.919868 
   14700    0.9553753   -1315.3491    101.52909    21774.936    3.1951836    27.924514 
   14800   0.95040232   -1314.9646    87.322254    21787.938     3.193277    27.930071 
   14900   0.94668396   -1314.5022    80.846574    21796.632    3.1920033    27.933786 
   15000   0.93916264   -1313.9743    87.132821    21797.576     3.191865    27.934189 
   15100   0.91944018   -1313.3583    102.72192    21793.136    3.1925153    27.932292 
   15200   0.88971334   -1312.3428    117.88731    21790.981     3.192831    27.931371 
   15300    0.8624053   -1310.6154    117.51083    21802.187      3.19119    27.936159 
   15400   0.85603873   -1308.4116    95.046544    21830.066    3.1871145    27.948061 
   15500   0.88606156   -1306.1796    78.849793    21854.184    3.1835973     27.95835 
   15600   0.95973905   -1304.4315    95.175322    21854.779    3.1835106    27.958603 
   15700    1.0513439    -1303.418    116.70514    21848.446    3.1844333    27.955903 
   15800    1.1247585   -1302.8426    114.20887     21854.94    3.1834871    27.958672 
   15900    1.1516212   -1302.7641    91.934911    21870.279    3.1812543    27.965212 
   16000    1.1386453   -1303.8915     79.84614    21871.169     3.181125    27.965591 
   16100    1.1601361   -1306.3266    96.444963    21845.339    3.1848863    27.954577 
   16200    1.1873759   -1308.8658    117.35185    21814.911    3.1893286    27.941592 
   16300    1.1600388   -1311.0212    117.11824    21799.691    3.1915553    27.935093 
   16400    1.0947187   -1312.9816     99.41807    21797.499    3.1918764    27.934156 
   16500    1.0243153    -1314.004    83.685042    21799.122    3.1916386    27.934849 
   16600   0.97538479   -1314.7082     79.33733    21795.894    3.1921114     27.93347 
   16700   0.95864675   -1315.0758    89.089604    21785.876    3.1935792     27.92919 
   16800   0.96925812   -1315.3332    106.47276    21772.124    3.1955964    27.923312 
   16900   0.98739002   -1315.5132    120.08962    21761.631    3.1971372    27.918826 
   17000   0.99071094   -1315.6436    120.69167    21760.012     3.197375    27.918134 
   17100   0.97881754   -1315.7332    107.50347    21767.668    3.1962505    27.921407 
   17200   0.96844532   -1315.7665    88.938268    21779.362    3.1945343    27.926406 
   17300   0.96520479   -1315.7153    77.102764    21787.537    3.1933357      27.9299 
   17400   0.95865156    -1315.551    80.003068    21787.241    3.1933792    27.929773 
   17500   0.94534598   -1315.2588      96.4192    21779.431    3.1945242    27.926436 
   17600    0.9386564   -1314.8545    116.29472    21770.543    3.1958285    27.922636 
   17700    0.9479269   -1314.3877    126.53691    21768.567    3.1961185    27.921792 
   17800   0.96668887   -1313.9139    119.25657    21778.003    3.1947338    27.925825 
   17900   0.97964162   -1313.4556    97.563606    21796.581    3.1920107    27.933764 
   18000   0.97611503   -1313.0021    74.854876    21815.729     3.189209    27.941941 
   18100   0.96927873   -1312.4747    67.448163     21825.22    3.1878222    27.945993 
   18200   0.99049953   -1311.8968    85.016642    21818.609    3.1887881    27.943171 
   18300    1.0562425   -1311.4296    117.50202     21801.59    3.1912773    27.935904 
   18400    1.1222188   -1311.1776    140.11868    21789.148    3.1930997    27.930588 
   18500     1.104418   -1311.2635    126.36677    21797.079    3.1919377    27.933977 
   18600    1.0543757   -1311.7071    86.429582    21818.905    3.1887448    27.943297 
   18700    1.0567055    -1312.443    58.091176    21831.152     3.186956    27.948524 
   18800    1.0632807   -1313.1716    62.888992    21821.486    3.1883677    27.944399 
   18900    1.0441577   -1313.7941    94.431983    21795.013    3.1922403    27.933094 
   19000    1.0184421   -1314.3058    127.80463    21768.343    3.1961514    27.921696 
   19100    0.9944207   -1314.7353    139.71508    21756.424    3.1979024    27.916599 
   19200   0.97560605   -1315.1064    124.73682    21762.581    3.1969977    27.919232 
   19300   0.97324007   -1315.4082    96.571739    21778.024    3.1947306    27.925834 
   19400   0.98304378   -1315.6325    75.243942    21789.755    3.1930106    27.930848 
   19500   0.97786134   -1315.7653    72.603776    21790.089    3.1929617     27.93099 
   19600   0.95058445   -1315.7829    86.883452    21780.464    3.1943728    27.926877 
   19700   0.93475557   -1315.6756    106.66043    21768.591    3.1961149    27.921802 
   19800   0.95483807   -1315.4587    119.26093    21762.636    3.1969896    27.919255 
   19900   0.98362408   -1315.1614    118.23384    21766.378      3.19644    27.920855 
   20000   0.98808091   -1314.8211    106.13797    21777.638    3.1947872     27.92567 
   20010   0.98760589   -1314.7755    115.32081    21772.087    3.1956017    27.923297 
Loop time of 4.83541 on 1 procs for 20000 steps with 500 atoms

Performance: 357.364 ns/day, 0.067 hours/ns, 4136.156 timesteps/s
98.3% CPU use with 1 MPI tasks x no OpenMP threads

MPI task timing breakdown:
Section |  min time  |  avg time  |  max time  |%varavg| %total
---------------------------------------------------------------
Pair    | 3.5582     | 3.5582     | 3.5582     |   0.0 | 73.59
Neigh   | 0.0036938  | 0.0036938  | 0.0036938  |   0.0 |  0.08
Comm    | 0.11636    | 0.11636    | 0.11636    |   0.0 |  2.41
Output  | 0.11336    | 0.11336    | 0.11336    |   0.0 |  2.34
Modify  | 0.99077    | 0.99077    | 0.99077    |   0.0 | 20.49
Other   |            | 0.05306    |            |       |  1.10

Nlocal:    500 ave 500 max 500 min
Histogram: 1 0 0 0 0 0 0 0 0 0
Nghost:    1188 ave 1188 max 1188 min
Histogram: 1 0 0 0 0 0 0 0 0 0
Neighs:    13500 ave 13500 max 13500 min
Histogram: 1 0 0 0 0 0 0 0 0 0

Total # of neighbors = 13500
Ave neighs/atom = 27
Neighbor list builds = 6
Dangerous builds = 0
Setting up Verlet run ...
  Unit style    : real
  Current step  : 20010
  Time step     : 1
Per MPI rank memory allocation (min/avg/max) = 4.376 | 4.376 | 4.376 Mbytes
Step Temp PotEng Press Volume Density Lx 
   20010   0.98760589   -1314.7755    115.32081    21772.087    3.1956017    27.923297 
   20100   0.84646937   -1314.4966    86.439509    21793.308    3.1924902    27.932366 
   20200   0.80091945   -1314.2129    85.611056    21796.334    3.1920469    27.933658 
   20300   0.83830829   -1313.9487    94.395601    21793.077     3.192524    27.932267 
   20400   0.90525845   -1313.6529    107.15183    21787.777    3.1933006    27.930002 
   20500   0.98738738   -1313.3194    115.41145    21786.038    3.1935555    27.929259 
   20600    1.1062089   -1312.9383    113.36536     21791.41    3.1927682    27.931555 
   20700     1.279616   -1312.5092    101.15775    21803.599    3.1909832    27.936762 
   20800    1.5027269   -1312.1254    87.187124    21816.699    3.1890673    27.942355 
   20900    1.7802699   -1311.7792    81.576231    21823.832    3.1880249    27.945401 
   21000    2.0869144    -1311.716    91.806382     21818.62    3.1887865    27.943175 
   21100    2.2570827   -1311.8054    111.46485    21805.466    3.1907101    27.937559 
   21200     2.184356    -1312.077    123.57049    21795.455    3.1921756    27.933283 
   21300    2.1659442   -1312.4452    117.73272    21796.491    3.1920238    27.933726 
   21400     2.357214   -1312.6626    92.633481    21810.926    3.1899114     27.93989 
   21500    2.6123014   -1313.1055    67.302351    21824.485    3.1879295    27.945679 
   21600    2.6794532   -1313.5597    62.355438    21823.549    3.1880663     27.94528 
   21700    2.6347675   -1313.9522    87.359996    21802.608    3.1911283    27.936339 
   21800    2.6233303   -1314.1676    130.20682     21771.98    3.1956176    27.923251 
   21900    2.6719886   -1314.0497    158.78806    21754.557    3.1981768      27.9158 
   22000    2.7509622   -1313.5801    146.31343    21767.776    3.1962347    27.921453 
   22100    2.7229433   -1312.7267    98.175004    21807.521    3.1904095    27.938436 
   22200    2.6825805   -1311.1988    49.938667    21851.005    3.1840604    27.956994 
   22300    2.7194398   -1308.8909    50.105046    21865.893    3.1818924    27.963342 
   22400    2.7941909   -1306.6636    106.95539    21843.456    3.1851608    27.953774 
   22500    2.8433673   -1304.0702    149.71451    21832.852    3.1867078     27.94925 
   22600    2.9040384   -1300.6521    95.389195    21889.759    3.1784233    27.973512 
   22700     3.113131   -1297.8994    56.550787    21933.674    3.1720595    27.992206 
   22800    3.5168927   -1297.1901    107.11173    21908.405    3.1757183    27.981452 
   22900    3.9704675   -1295.9024    134.37157    21900.022    3.1769338    27.977883 
   23000    4.2091412   -1294.3943    77.100382     21947.25    3.1700975     27.99798 
   23100     4.229795   -1295.0021    75.660132    21944.907    3.1704359    27.996984 
   23200    4.3556105   -1298.7861    126.09855    21889.638    3.1784408     27.97346 
   23300    4.5832736   -1302.5923     126.2178    21863.984    3.1821702    27.962528 
   23400    4.6849821   -1306.7165    84.602935     21864.15    3.1821461    27.962599 
   23500    4.6020745   -1309.5296    65.771202     21857.24    3.1831521    27.959653 
   23600     4.378979   -1310.7009    86.932808    21834.817     3.186421    27.950088 
   23700    4.2504168   -1310.5616    121.86281    21813.012    3.1896063    27.940781 
   23800    4.5292015   -1309.8648    135.88332    21810.007    3.1900458    27.939498 
   23900    4.8035478   -1308.4942    111.36147    21835.513    3.1863195    27.950385 
   24000    4.8274962   -1307.2569    72.885555    21870.251    3.1812584    27.965199 
   24100     4.774798   -1305.3518    66.323403    21888.008    3.1786776    27.972766 
   24200    4.8123112   -1303.8885    112.63731    21870.228    3.1812618     27.96519 
   24300    5.0381582   -1302.7309     142.5273    21861.616    3.1825149    27.961519 
   24400    5.5650129   -1301.9994    98.369613     21896.48    3.1774478    27.976374 
   24500    5.8815858   -1301.2315    51.046705    21930.002    3.1725907    27.990644 
   24600    5.4500268   -1301.5581    103.61999     21891.82    3.1781241     27.97439 
   24700    5.1654791   -1301.5373    173.57615    21846.546    3.1847103    27.955092 
   24800    5.4381964   -1299.5147    99.355645    21906.688     3.175967    27.980722 
   24900    5.6128494   -1295.6889   -21.389787    22008.412    3.1612875    28.023964 
   25000    5.6485895   -1294.7623    106.75026    21931.351    3.1723956    27.991218 
   25100    5.7666507   -1293.9586    210.94506    21871.907    3.1810175    27.965906 
   25200     5.995716    -1289.918    52.102196     22000.18    3.1624705     28.02047 
   25300    6.2780329    -1288.844    51.196444    22010.242    3.1610248    28.024741 
   25400    6.6360763   -1290.9924    149.43089    21936.375     3.171669    27.993355 
   25500    6.8512048   -1292.7418    117.92071    21944.776    3.1704548    27.996928 
   25600    7.0125918   -1295.7422    54.932222    21964.498     3.167608    28.005313 
   25700    7.1459916   -1300.0312    93.893115    21911.042    3.1753359    27.982575 
   25800    6.8514331   -1302.6377    141.52094    21863.648    3.1822192    27.962385 
   25900    6.5210583   -1302.9767    105.86893    21884.419    3.1791989    27.971237 
   26000    6.6249709   -1302.3623    60.469766    21918.797    3.1742125    27.985876 
   26100    6.7813403   -1301.2255     87.50196     21911.02    3.1753391    27.982566 
   26200    6.6444916   -1299.4308    140.06734    21891.416    3.1781828    27.974218 
   26300    6.7692989    -1297.113    108.20652    21928.685    3.1727812    27.990084 
   26400    7.1289075   -1294.7829    54.926316    21978.087    3.1656495    28.011087 
   26500    7.4395323   -1293.4134    114.36774    21946.404    3.1702196    27.997621 
   26600    7.5723031   -1292.5598    146.89333    21930.459    3.1725246    27.990838 
   26700    7.5198101   -1288.9625    48.870974    22015.365    3.1602892    28.026915 
   26800    7.4796908   -1287.0224    70.077615    22016.421    3.1601376    28.027363 
   26900    7.4555232   -1286.2965     192.8945    21944.445    3.1705027    27.996787 
   27000    7.6493936   -1283.5657    61.195283    22049.744    3.1553619    28.041496 
   27100    8.1266708   -1282.5928    28.241077    22077.557    3.1513868    28.053281 
   27200    8.7686829   -1288.6621    191.88189    21935.154    3.1718455    27.992836 
   27300    8.8823436   -1291.6407    98.054654    21972.756    3.1664175    28.008822 
   27400    8.8557002   -1293.8323    42.885364    21991.135    3.1637712    28.016629 
   27500    8.2449864   -1294.9725    116.28788    21934.434    3.1719497    27.992529 
   27600    7.9722743   -1295.3349     129.4579    21926.373    3.1731157      27.9891 
   27700    8.3336367   -1292.6662    78.352008     21977.11    3.1657902    28.010672 
   27800     8.188423   -1290.2008    91.102229    21987.645    3.1642735    28.015147 
   27900    8.0975183    -1287.336    124.85724    21986.844    3.1643886    28.014807 
   28000    8.3870128   -1283.7616    92.334672    22031.239    3.1580122     28.03365 
   28100    9.0117303   -1282.4673    80.257077    22049.119    3.1554512    28.041231 
   28200    9.3199644   -1281.9622    130.40618    22020.744    3.1595172    28.029197 
   28300    9.5251394    -1281.818    82.612132    22054.086    3.1547406    28.043337 
   28400    9.5750091   -1283.9168    78.571678    22042.649    3.1563774    28.038489 
   28500    9.3057864   -1287.0274    148.16676    21977.735    3.1657001    28.010938 
   28600    9.4394324   -1287.5646    80.715228    22017.746    3.1599475    28.027925 
   28700    9.9573815   -1288.4862    44.297607    22033.207    3.1577301    28.034484 
   28800    9.4221355   -1292.0125    165.03184    21931.654    3.1723517    27.991347 
   28900    9.3349999   -1292.0201    130.18323    21952.606     3.169324    28.000257 
   29000     9.851275    -1290.437    17.625733    22035.912    3.1573425    28.035631 
   29100    9.6674601   -1289.7238    129.94923    21968.782    3.1669904    28.007133 
   29200    9.1276523   -1285.8464    146.27434    21985.711    3.1645518    28.014325 
   29300    8.9980742    -1278.747    31.675054    22105.875    3.1473498    28.065271 
   29400    9.4687909   -1277.8586    133.77927    22050.104    3.1553103    28.041649 
   29500    9.9629363   -1275.8423    125.33273     22074.31    3.1518503    28.051906 
   29600    10.676746   -1272.0288    45.342355    22151.099    3.1409241    28.084396 
   29700    11.366894   -1275.8747    149.87814    22060.066    3.1538854    28.045871 
   29800    11.013751   -1277.2587     82.95104    22092.283    3.1492861    28.059518 
   29900    10.755544   -1279.2502    76.865055    22081.024     3.150892     28.05475 
   30000    10.597986   -1282.0417    144.22299    22021.195    3.1594525    28.029389 
   30100     10.95228   -1281.5465    74.936654    22069.884    3.1524824    28.050031 
   30200    11.966445   -1283.8573    89.785745    22046.068    3.1558879    28.039938 
   30300    11.305247   -1286.7705    127.77597    22002.246    3.1621736    28.021347 
   30400    11.135126   -1287.8746    90.906337    22018.441    3.1598478     28.02822 
   30500    11.533035   -1287.7552    86.074576    22018.554    3.1598315    28.028268 
   30600    11.302333   -1286.5279     115.9416    22004.569    3.1618398    28.022333 
   30700    10.853549   -1282.8724    101.15194    22039.469    3.1568328     28.03714 
   30800    10.757381   -1277.9761    84.232277    22086.685    3.1500843    28.057147 
   30900    10.944526   -1274.6204    116.35633    22090.564    3.1495312     28.05879 
   31000    11.506113   -1271.2921    93.851873    22128.453    3.1441385    28.074822 
   31100    11.906965   -1268.3339    88.182597    22152.833    3.1406783    28.085129 
   31200    12.221311   -1268.1812    130.58431    22130.727    3.1438154    28.075784 
   31300    12.574926   -1266.2827    54.288322     22195.06    3.1347029    28.102963 
   31400    12.475983   -1267.8337     115.6801    22145.268    3.1417511    28.081932 
   31500     12.18628   -1270.4399    144.69476    22108.867    3.1469238    28.066537 
   31600    12.322363    -1269.005    13.113506    22198.943    3.1341546    28.104602 
   31700    12.239265   -1274.0666    176.56974    22059.934    3.1539043    28.045815 
   31800    11.666508   -1270.2133    85.016009    22140.412    3.1424402    28.079879 
   31900    12.671862   -1268.9909    54.503802    22170.806    3.1381322    28.092722 
   32000    13.265575   -1272.7538    166.56507     22078.52    3.1512492     28.05369 
   32100     13.21042   -1271.3325    50.414845    22162.666    3.1392848    28.089284 
   32200    12.814046   -1274.0487    114.43301    22102.598    3.1478165    28.063884 
   32300    12.549172   -1274.4185    115.80333    22099.221    3.1482974    28.062455 
   32400    13.689914   -1273.7013    73.115507    22134.696    3.1432517    28.077462 
   32500    14.006957   -1275.4533    121.40291    22095.802    3.1487846    28.061007 
   32600    13.128426   -1273.1609    93.621816     22125.57    3.1445481    28.073603 
   32700    13.441443   -1272.9553    94.378181    22123.608     3.144827    28.072773 
   32800    14.662331   -1274.4913    108.41503    22106.443    3.1472689    28.065511 
   32900    14.375377    -1273.283    97.328034    22124.755     3.144664    28.073258 
   33000    12.964852   -1272.6027    97.523058    22128.844    3.1440829    28.074988 
   33100    13.733348   -1272.7708    103.97183    22121.533     3.145122    28.071896 
   33200    14.100834    -1271.381     99.29686    22137.231    3.1428917    28.078534 
   33300    13.668284   -1268.9589    101.57973     22155.29    3.1403299    28.086167 
   33400    14.046883   -1266.2798    97.860172    22172.596    3.1378788    28.093478 
   33500    13.947175   -1263.8253    103.34521    22186.809    3.1358687     28.09948 
   33600    13.838783   -1260.1663     95.91829      22219.8    3.1312127    28.113401 
   33700    14.334887   -1259.4061    104.09583    22222.864     3.130781    28.114693 
   33800    14.999317   -1259.6488    100.80473    22224.145    3.1306005    28.115233 
   33900    15.116771   -1260.4459    97.974489    22220.158    3.1311623    28.113552 
   34000    14.436845   -1261.2051    108.07061    22204.521    3.1333673    28.106955 
   34100    14.226527   -1261.9483    90.950657     22208.26    3.1328398    28.108533 
   34200    15.468064   -1262.7916    101.97097    22197.222    3.1343977    28.103875 
   34300    16.109952   -1263.0071     100.4981    22198.923    3.1341574    28.104593 
   34400    15.730106   -1264.3232     88.89156    22194.993    3.1347124    28.102934 
   34500    15.278956    -1266.417    117.54618    22160.266    3.1396248     28.08827 
   34600    15.028481   -1265.4077    77.418259    22192.625    3.1350469    28.101935 
   34700    15.947002   -1267.5691    122.09866        22152    3.1407964    28.084777 
   34800    16.661138    -1266.533    95.320937    22181.135    3.1366709    28.097084 
   34900    15.896594   -1262.1026    78.880214    22225.283    3.1304403    28.115713 
   35000    16.079782    -1260.953    151.03274    22186.724    3.1358808    28.099444 
   35100    16.531965   -1257.0344    40.020081    22286.129    3.1218934    28.141347 
   35200    15.699346   -1258.0886    151.88271    22208.799    3.1327637     28.10876 
   35300    15.933992   -1255.4982    82.648875    22270.715    3.1240542    28.134857 
   35400     17.27721   -1255.6712    60.265495    22286.458    3.1218474    28.141485 
   35500    16.212043   -1257.8641    181.46521    22195.245    3.1346768    28.103041 
   35600    15.720662   -1253.4786    10.890704    22333.491     3.115273    28.161268 
   35700     18.00623   -1260.4435    163.37478    22188.104    3.1356857    28.100027 
   35800    17.539903   -1257.5407    85.402702    22257.403    3.1259226    28.129251 
   35900    16.046768   -1257.1936    84.612762    22260.009    3.1255568    28.130348 
   36000    16.997927   -1259.6842    121.48855    22217.317    3.1315626    28.112354 
   36100    17.134686   -1257.8939    78.102088    22256.692    3.1260225    28.128951 
   36200    16.757511   -1257.1075    119.00627    22236.163    3.1289085      28.1203 
   36300    17.512703   -1256.0503    88.638742    22267.088     3.124563     28.13333 
   36400    17.834851   -1255.0459    106.45078    22264.141    3.1249767    28.132089 
   36500    17.116311   -1253.9493     106.4781    22272.772    3.1237657    28.135724 
   36600     17.00397   -1253.2677    75.145052    22295.802    3.1205391    28.145418 
   36700    17.905406   -1256.4383    152.26278    22222.947    3.1307693    28.114728 
   36800    18.047388   -1253.4839    32.311748    22323.386    3.1166831     28.15702 
   36900    17.274017   -1255.4783    157.20355    22231.404    3.1295783    28.118294 
   37000    17.869063   -1254.5786    74.923726    22293.804    3.1208187    28.144577 
   37100    18.863319   -1254.8004    79.579907    22290.922    3.1212222    28.143364 
   37200    17.806886   -1253.7986    151.90977     22249.58    3.1270218    28.125954 
   37300    17.004826    -1251.351     22.50935    22351.755    3.1127275    28.168942 
   37400    19.072084   -1258.6001    184.68766    22195.784    3.1346007    28.103268 
   37500    19.641333   -1256.3693    28.945328    22310.497    3.1184837      28.1516 
   37600    17.514645   -1257.4215    137.41029    22230.659    3.1296831     28.11798 
   37700    17.654897   -1254.7743    100.59732    22273.642    3.1236437     28.13609 
   37800    18.563378   -1251.8402     68.46081    22315.799    3.1177428     28.15383 
   37900     18.63723   -1251.6664    137.22668    22275.524    3.1233797    28.136883 
   38000     18.67878   -1247.4569    62.231754    22356.558    3.1120587     28.17096 
   38100    19.256848   -1247.6789    131.22588    22313.092     3.118121    28.152691 
   38200    19.200353   -1245.0726    75.189636     22371.27    3.1100121    28.177138 
   38300    19.469743   -1246.7214    114.81986    22336.328    3.1148773     28.16246 
   38400    20.704413   -1246.6621    97.422006    22345.335    3.1136217    28.166245 
   38500    19.240725   -1246.4244    80.400717    22357.166     3.111974    28.171215 
   38600    18.394419   -1248.6086    142.35883    22303.606    3.1194471    28.148701 
   38700    19.799469   -1246.5745    27.604951    22394.724    3.1067549    28.186982 
   38800    20.309225   -1250.0014    190.15824    22266.975    3.1245789    28.133283 
   38900    19.479101   -1245.5442    33.170916     22401.17     3.105861    28.189686 
   39000    18.799848   -1248.4842    121.21339    22316.469    3.1176491    28.154112 
   39100    19.420527   -1252.5561    126.92313    22280.446    3.1226897    28.138955 
   39200     20.49754   -1252.4081    33.757051    22343.651    3.1138564    28.165537 
   39300    20.782158   -1255.1565     174.3984    22237.021    3.1287878    28.120662 
   39400    20.146637   -1250.5577    45.662934    22351.781    3.1127238    28.168953 
   39500    19.387821   -1251.7533    125.76741    22288.962    3.1214967    28.142539 
   39600    19.734298   -1248.6971    89.716327    22334.451    3.1151391    28.161671 
   39700    20.844671   -1248.3402    95.441684    22340.516    3.1142934     28.16422 
   39800    20.281637   -1244.9821    115.76153    22350.278     3.112933    28.168322 
   39900    20.612861   -1241.5285    74.736112    22404.192    3.1054421    28.190953 
   40000    21.468892   -1241.8942    143.35144    22358.883    3.1117351    28.171936 
   40100    20.922196   -1237.6554    35.411246    22460.777    3.0976186    28.214667 
   40200    21.175301   -1242.6799    168.86451    22338.913    3.1145168    28.163547 
   40300    21.530618   -1242.4191    68.165834    22407.097    3.1050394    28.192172 
   40400    21.503448   -1245.1035    61.080683    22392.674    3.1070394    28.186121 
   40500    20.809117   -1248.0693    176.80057    22292.695    3.1209739     28.14411 
   40600    20.659787   -1242.8283    17.408129    22433.636    3.1013661    28.203298 
   40700    20.744086    -1244.231    170.62273    22323.877    3.1166145    28.157227 
   40800    21.058185   -1239.0921    48.505201    22444.775     3.099827    28.207965 
   40900    21.727496   -1238.8377    133.30743    22395.884    3.1065941    28.187468 
   41000    22.581167   -1236.7737    79.187382    22446.601    3.0995748     28.20873 
   41100    22.458646   -1238.8456    108.19022    22410.433    3.1045773    28.193571 
   41200     20.92165    -1238.567    108.58086    22408.562    3.1048364    28.192786 
   41300    21.629845   -1238.4577    75.663634    22431.602    3.1016474    28.202445 
   41400    22.698641   -1243.8659    163.58707    22339.854    3.1143856    28.163942 
   41500    22.748363    -1240.841   -11.093563    22474.878    3.0956751     28.22057 
   41600    22.271552   -1249.2221    242.36407    22247.989    3.1272454    28.125284 
   41700    21.527248   -1240.9242   -16.536692    22470.495    3.0962789    28.218735 
   41800    23.815059   -1246.2201     170.7834    22315.512    3.1177828    28.153709 
   41900    23.742626    -1241.196    58.084456    22426.015    3.1024201    28.200104 
   42000    22.119795   -1241.4337    116.70363    22385.762    3.1079987    28.183221 
   42100    22.048728   -1239.8211    103.86576    22406.434    3.1051314    28.191893 
   42200    23.307215   -1236.3991    73.938991    22453.883    3.0985696     28.21178 
   42300    22.239705   -1232.1385    135.30793    22445.914    3.0996697    28.208442 
   42400    22.319299   -1228.3076    53.871033    22538.389    3.0869518    28.247127 
   42500     23.39683   -1230.2392     164.1185    22454.046    3.0985471    28.211848 
   42600     24.13392   -1226.0012    2.8880092    22590.632    3.0798129    28.268936 
   42700    24.014972    -1235.372    279.41994    22335.147     3.115042    28.161964 
   42800     23.31096   -1232.3554   -23.251219    22555.469    3.0846142    28.254261 
   42900    23.982893   -1238.3058    134.62466    22400.705    3.1059255    28.189491 
   43000    23.494097   -1236.3773    103.74563    22432.115    3.1015765     28.20266 
   43100    23.415309   -1234.7849    72.653357    22468.922    3.0964957    28.218077 
   43200     25.14268   -1235.0161    142.05657    22429.778    3.1018997    28.201681 
   43300    24.877661   -1232.6765    53.391268    22510.219    3.0908149    28.235354 
   43400    24.629492   -1236.9625     148.7822    22411.245    3.1044648    28.193911 
   43500    24.352237   -1235.9244    53.290545    22475.755    3.0955544    28.220937 
   43600      23.8355    -1238.038    143.07512    22402.951    3.1056142    28.190433 
   43700    23.405676   -1232.9868    55.472705    22503.663    3.0917154    28.232613 
   43800     24.30711   -1234.0327    146.15039    22438.967    3.1006294    28.205531 
   43900    24.972731   -1232.0528    67.744686    22506.026    3.0913907    28.233601 
   44000    24.410527   -1229.2788    88.080711     22510.39    3.0907914    28.235426 
   44100    25.622461   -1231.1356    152.06883    22461.097    3.0975745    28.214801 
   44200    26.178803   -1224.8339    28.716607    22594.329    3.0793089    28.270478 
   44300    23.815577   -1223.1238    174.36806    22508.905    3.0909954    28.234805 
   44400     25.35623   -1221.9026     27.97461    22617.093    3.0762096    28.279969 
   44500    27.934744   -1229.7263    170.54528    22460.101    3.0977118    28.214384 
   44600      25.0539   -1225.4615    37.777004    22574.678    3.0819895     28.26228 
   44700    24.895938   -1228.6906     155.9218    22469.895    3.0963616    28.218484 
   44800     26.07606   -1227.1099    64.456835    22544.092    3.0861709     28.24951 
   44900    25.971357   -1227.2009    99.155519    22527.468    3.0884483    28.242564 
   45000    26.274872   -1226.5491    130.52585    22516.318    3.0899776    28.237904 
   45100    27.730933   -1222.1271     14.31766    22623.361    3.0753574    28.282581 
   45200    25.753313   -1228.5919    276.43629    22397.383    3.1063861    28.188097 
   45300    25.071587   -1220.8775   -56.902676    22678.003    3.0679473    28.305333 
   45400    26.422907   -1229.7818     204.3831    22439.016    3.1006226    28.205552 
   45500      26.4385   -1223.8816    23.094837     22605.16    3.0778336    28.274994 
   45600    26.468956   -1225.9426    161.80512    22500.449    3.0921569    28.231269 
   45700    28.190745    -1220.675    53.825685     22618.21    3.0760577    28.280435 
   45800    27.135827   -1222.0741    131.75752    22557.897    3.0842822    28.255275 
   45900      26.1037   -1222.3844    83.939703    22583.164    3.0808313    28.265821 
   46000    27.101385   -1226.1012    97.940205    22539.027    3.0868644    28.247394 
   46100    26.270252   -1229.0063    133.36885    22488.652    3.0937791    28.226334 
   46200    24.653082   -1227.1725    2.0455301    22587.563    3.0802313    28.267656 
   46300    26.641455   -1234.9534    227.87423    22385.449    3.1080422     28.18309 
   46400    26.873674   -1224.8277   -9.1733766    22616.737    3.0762581    28.279821 
   46500    27.051042   -1227.3763     182.3318    22474.586    3.0957153    28.220448 
   46600    27.913889   -1223.4658    34.184293    22609.262    3.0772751    28.276705 
   46700    28.048153   -1225.8205    156.33405    22508.692    3.0910246    28.234716 
   46800    25.948788   -1221.9839    49.907883    22602.085    3.0782524    28.273712 
   46900    26.091192   -1226.1051    140.86568    22507.744    3.0911548    28.234319 
   47000    28.254638   -1225.3522    80.804589     22560.46    3.0839319    28.256345 
   47100     27.45246   -1221.7767     77.37047    22597.862    3.0788275    28.271952 
   47200    27.604717   -1219.3717    153.71283    22564.977    3.0833144    28.258231 
   47300    28.842004   -1214.8032   -1.7376586    22705.757    3.0641973    28.316875 
   47400    28.187274   -1219.5285    215.12648    22523.783    3.0889536    28.241024 
   47500    27.809135   -1213.7092    27.022527    22697.766    3.0652762    28.313553 
   47600    29.350233    -1219.342    159.49862    22568.869    3.0827828    28.259855 
   47700    28.848877   -1217.3554    48.842088    22658.089    3.0706438    28.297046 
   47800    27.100486     -1220.99    144.57082    22558.048    3.0842615    28.255338 
   47900    27.892191   -1219.1037    56.131704    22631.364    3.0742699    28.285916 
   48000    28.845453   -1218.9255    147.45463    22575.586    3.0818656    28.262658 
   48100    29.176535   -1216.1697    34.218379    22677.887    3.0679631    28.305285 
   48200    29.146806   -1218.9839    177.52437     22554.91    3.0846907    28.254028 
   48300    28.260022   -1214.2092    62.932037     22671.42    3.0688382    28.302594 
   48400    30.376594   -1215.4686    99.665893    22644.839    3.0724405    28.291529 
   48500    31.722479   -1215.2173    108.17236      22643.4    3.0726357    28.290929 
   48600     29.74585   -1214.2921     68.32417    22673.492    3.0685577    28.303456 
   48700    29.458639   -1217.6155    146.62759    22590.836    3.0797851    28.269021 
   48800    28.977341   -1214.7199    37.832199    22687.397    3.0666771    28.309241 
   48900    30.062196   -1219.2143    166.31169    22572.866    3.0822369    28.261523 
   49000    31.780083   -1216.6775    30.013827    22692.575    3.0659773    28.311394 
   49100    29.603842    -1217.714    165.91774    22584.998    3.0805811    28.266586 
   49200    28.618413   -1215.1859    45.334879     22677.05    3.0680764    28.304936 
   49300    30.548924   -1220.4034    142.90184    22568.332    3.0828561    28.259631 
   49400    30.308314   -1216.9401    67.510329    22643.927    3.0725642    28.291149 
   49500    29.204725   -1217.3928     129.8097    22604.311    3.0779492     28.27464 
   49600    30.244217    -1213.578    69.470061    22684.167    3.0671137    28.307897 
   49700    31.025497   -1211.3833    136.63569    22660.329    3.0703403    28.297978 
   49800    30.763217   -1206.5953    60.443734    22752.661    3.0578806     28.33636 
   49900    31.246352   -1208.0716    116.79573    22703.522     3.064499    28.315946 
   50000    30.900297   -1208.8824    108.57858    22703.724    3.0644717     28.31603 
   50100    28.971941   -1207.9689    69.344376    22738.118    3.0598364    28.330321 
   50200    30.645689   -1209.5713     129.5819    22684.243    3.0671035    28.307929 
   50300    32.812093    -1209.346    68.544154    22734.996    3.0602566    28.329025 
   50400    31.709943   -1210.6468    129.23022    22677.494    3.0680162    28.305121 
   50500    31.802062   -1212.6208    83.844694     22684.92    3.0670119    28.308211 
   50600    31.814094   -1216.2309    109.89183    22634.331    3.0738669    28.287152 
   50700    30.037115   -1213.1564     91.95512    22673.359    3.0685758    28.303401 
   50800    30.875286   -1212.1099    109.37303    22675.171    3.0683305    28.304155 
   50900    32.777124   -1214.2895    89.472489    22671.844    3.0687808     28.30277 
   51000    32.366737   -1217.5315    126.66109    22618.266    3.0760501    28.280458 
   51100    30.647157   -1215.2902    61.318441    22679.121    3.0677962    28.305798 
   51200    31.427928   -1216.3971    150.27871    22610.649    3.0770864    28.277283 
   51300    32.047116   -1209.2535    53.180088    22733.784    3.0604197    28.328521 
   51400    31.924931   -1210.8134    144.83676    22666.376    3.0695211    28.300495 
   51500    32.258494   -1208.6375    57.271727    22746.943    3.0586493    28.333986 
   51600    32.589137   -1208.8664    123.88142    22700.521    3.0649041    28.314699 
   51700    32.499304   -1205.0976    91.021603    22753.913    3.0577123     28.33688 
   51800    33.933231   -1205.3725    94.550932    22756.723    3.0573347    28.338047 
   51900    33.215229   -1202.7492    104.77304     22774.35    3.0549685    28.345361 
   52000    30.592921   -1197.8779    92.271629    22821.657    3.0486358    28.364974 
   52100    34.134385   -1201.1444    110.34137    22783.003    3.0538081    28.348951 
   52200    35.648841   -1203.6595    89.479371    22771.017    3.0554156    28.343978 
   52300    32.624105   -1204.3654    112.72863    22746.239    3.0587439    28.333694 
   52400    32.420036   -1204.1393    79.883634     22773.31     3.055108     28.34493 
   52500    34.089504   -1207.1394    132.10554    22718.276    3.0625089    28.322078 
   52600    34.875006   -1204.0744    28.868575    22809.095    3.0503148    28.359769 
   52700    31.445186   -1209.3603    202.08512    22647.684    3.0720546    28.292713 
   52800     32.30373   -1204.4175   -9.6501813    22829.887    3.0475368    28.368383 
   52900    34.535692   -1211.6131    202.83092    22629.607    3.0745086    28.285184 
   53000    32.995808     -1202.61    15.897841    22829.564    3.0475799     28.36825 
   53100    33.590663   -1204.1471    168.53666    22714.012    3.0630838    28.320306 
   53200    36.720957   -1201.5619    51.327604    22820.856    3.0487427    28.364642 
   53300    34.245775   -1201.6645    133.89062    22764.189    3.0563321    28.341145 
   53400    32.320377   -1198.0092    81.583183    22835.652    3.0467674    28.370771 
   53500    34.313873   -1198.0098    113.50622    22815.045    3.0495194    28.362234 
   53600    36.391208   -1199.7139    85.896793    22823.106    3.0484422    28.365575 
   53700    35.094506   -1202.5498    108.51448    22775.058    3.0548734    28.345655 
   53800    34.025054   -1203.9453    92.384494     22765.87    3.0561063    28.341843 
   53900    33.895218    -1204.615    104.46057     22751.86    3.0579882    28.336028 
   54000    35.278976   -1204.5241    96.270888    22766.106    3.0560746    28.341941 
   54100    36.762148   -1202.2687    103.58352    22784.628    3.0535903    28.349625 
   54200    35.117469   -1199.8224    98.351881     22809.32    3.0502847    28.359862 
   54300    32.851138   -1200.8324    99.537027    22794.098    3.0523217    28.353552 
   54400    34.619491   -1203.0637     103.8201    22775.979    3.0547499    28.346037 
   54500    35.780812    -1199.808    92.408433    22817.874    3.0491413    28.363407 
   54600    35.011738   -1196.6077    107.85242    22841.818    3.0459449    28.373324 
   54700    35.635352   -1194.9648    83.145408    22875.959     3.041399    28.387454 
   54800    36.089205   -1196.3245    120.60702    22839.196    3.0462947    28.372238 
   54900    36.111891   -1195.0512    72.777848    22876.786    3.0412891    28.387796 
   55000    35.747917    -1198.204    136.76297    22803.677    3.0510396    28.357523 
   55100    35.022989   -1198.4981    43.721884    22866.936    3.0425991    28.383721 
   55200    35.586132   -1202.3515      169.814    22738.101    3.0598386    28.330315 
   55300    36.689578   -1200.3931    55.075024    22831.262    3.0473532    28.368953 
   55400    35.697187   -1199.3888    125.33915    22796.012    3.0520654    28.354346 
   55500      35.5543   -1194.9083    77.176315    22876.941    3.0412685     28.38786 
   55600    37.583251   -1194.9148    121.68105    22854.092    3.0443092    28.378405 
   55700    37.583885   -1194.6936    73.092318    22888.725    3.0397027    28.392733 
   55800    36.020815   -1195.7987     146.4055    22814.393    3.0496065    28.361964 
   55900    35.541301   -1192.1286    12.935685    22933.957    3.0337076    28.411424 
   56000    36.425251   -1198.8798    217.64135    22742.011    3.0593125    28.331939 
   56100     36.89903   -1192.1729   -27.314004    22969.607    3.0289992    28.426138 
   56200    37.547233   -1199.7172    223.15067     22737.86    3.0598711    28.330214 
   56300    36.918201   -1193.2378   -5.5409686    22949.906    3.0315993    28.418008 
   56400    36.171468   -1198.4299    186.88842    22771.596    3.0553378    28.344219 
   56500    36.438454   -1192.2893    39.549597    22922.243     3.035258    28.406586 
   56600     38.39706   -1194.0543    137.42688    22850.386    3.0448028    28.376872 
   56700    38.952152   -1193.0642    75.176427    22906.198    3.0373841    28.399956 
   56800    36.681349   -1193.9422    121.53327    22855.133    3.0441704    28.378836 
   56900    35.728289   -1193.9177    82.241773    22880.764    3.0407604    28.389441 
   57000     36.63079    -1194.332    120.83392    22854.742    3.0442225    28.378675 
   57100    37.256679   -1190.6837    80.487183    22918.101    3.0358065    28.404875 
   57200    38.137553   -1189.6313    121.74001    22905.336    3.0374984      28.3996 
   57300     38.26993   -1185.0311    76.677713    22979.432    3.0277041     28.43019 
   57400    38.311381     -1184.15    120.72807    22963.565    3.0297961    28.423645 
   57500    42.307123   -1183.3195     71.02188    23009.655    3.0237272    28.442649 
   57600     40.80937      -1187.5    139.33282    22919.605    3.0356073    28.405496 
   57700    38.712685   -1186.1146    66.474333    22974.922    3.0282984     28.42833 
   57800    38.598536    -1191.189    125.63351    22887.678    3.0398417      28.3923 
   57900    37.962131    -1191.613    87.762708     22901.07    3.0380642    28.397837 
   58000    37.903616   -1193.6139    102.21296    22869.131    3.0423071    28.384629 
   58100    38.706723   -1193.2084    95.492986    22879.324    3.0409518    28.388845 
   58200    40.325577   -1191.7351    104.02978    22899.523    3.0382694    28.397197 
   58300     39.39383   -1186.9169    91.611497    22952.665     3.031235    28.419147 
   58400    38.189457   -1184.9832    112.35839    22959.841    3.0302875    28.422108 
   58500      40.6306   -1182.9921    81.205014    23003.724    3.0245068    28.440205 
   58600    41.524155   -1184.6629    118.93329    22965.507    3.0295399    28.424446 
   58700    38.501119   -1182.2429    74.739959    23008.338    3.0239003    28.442106 
   58800    39.704272   -1188.3797    126.76744    22920.155    3.0355344    28.405723 
   58900    39.280073   -1186.8521    86.281917    22958.528    3.0304608    28.421567 
   59000     38.68787   -1186.2464    104.67267    22955.004    3.0309261    28.420112 
   59100     41.31082   -1187.4966    92.339816    22951.402    3.0314018    28.418626 
   59200    40.408953   -1187.4252    103.85276    22947.479      3.03192    28.417007 
   59300    38.188005   -1181.8923    98.492536    23001.833    3.0247554    28.439425 
   59400    41.204822   -1181.9903    96.928036    23003.117    3.0245866    28.439955 
   59500    41.479911   -1182.6595     101.7527    22996.425    3.0254668    28.437196 
   59600    39.615986   -1183.0416    89.067477    22994.947    3.0256613    28.436587 
   59700    38.522868   -1186.5962    126.31573     22934.01    3.0337006    28.411446 
   59800    41.966741   -1189.2098    50.477032    22966.278    3.0294382    28.424764 
   59900    44.175155   -1191.5989    172.56955    22868.459    3.0423965    28.384351 
   60000     38.21097   -1180.2027    5.5150928    23082.579    3.0141745    28.472664 
   60100    40.963545   -1189.1909    221.21049    22852.502    3.0445209    28.377747 
   60200    41.929029   -1182.7103   -31.838174    23087.223    3.0135682    28.474574 
   60300     39.01739    -1186.631    227.96157    22875.847    3.0414139    28.387407 
   60400    40.297474     -1184.69    8.3259568    23036.403    3.0202163    28.453666 
   60500    41.471808   -1191.1544    158.86355    22872.323    3.0418826    28.385949 
   60600    40.361568   -1186.2782    59.283534    22985.692    3.0268795    28.432771 
   60700    41.381427   -1184.8614    139.99243    22948.991    3.0317202    28.417631 
   60800    41.620665   -1177.8837    55.095043    23084.211    3.0139613    28.473336 
   60900    41.955629   -1176.8071    165.56023    23012.288    3.0233812    28.443734 
   61000     41.67753   -1171.0443   -40.657787    23215.205    2.9969548    28.527092 
   61100     41.81457   -1178.5945    273.84693    22926.539    3.0346892     28.40836 
   61200    44.682157   -1171.6148   -47.153663    23223.752    2.9958518    28.530593 
   61300    43.273123   -1177.2947    209.14329    22985.919    3.0268496    28.432865 
   61400    41.115273   -1174.5199     23.85635    23132.085    3.0077237    28.493005 
   61500    43.062329    -1183.919    160.79594    22942.307    3.0326035    28.414871 
   61600    41.215427   -1183.8167    54.440221    23015.272    3.0229893    28.444963 
   61700    40.023076   -1185.5209     149.8136    22930.312    3.0341898    28.409919 
   61800    44.051842   -1182.2285    29.486086     23061.32    3.0169531    28.463921 
   61900    42.480662   -1181.0965    222.06818    22945.963    3.0321203    28.416381 
   62000    41.731142   -1171.1379   -65.510436    23247.052    2.9928492    28.540131 
   62100    45.648027   -1183.1028    261.13187    22905.855    3.0374295    28.399814 
   62200    41.954998   -1174.0554    -15.36659    23172.372    3.0024945    28.509537 
   62300     40.52734   -1179.0059    174.89217    22991.166    3.0261589    28.435028 
   62400    43.550935   -1177.7375    44.114309    23092.669    3.0128574    28.476813 
   62500    44.653518   -1184.9093    151.74133    22955.264    3.0308917     28.42022 
   62600    43.105699   -1184.5394    46.301556    23029.122    3.0211712    28.450667 
   62700    41.791006   -1186.8521    184.63533    22908.212     3.037117    28.400789 
   62800    42.013886   -1174.3112   -101.50043    23226.332     2.995519    28.531649 
   62900    44.481731   -1184.4053    289.28699     22866.76    3.0426225    28.383648 
   63000    42.482913   -1172.3104   -10.877728    23183.608    3.0010394    28.514144 
   63100    42.867672   -1174.2672    174.89549    23042.399    3.0194304    28.456134 
   63200    44.937998   -1169.8453    38.798497    23192.548    2.9998825    28.517809 
   63300    44.665336   -1171.3099    157.20773    23095.621    3.0124723    28.478026 
   63400    43.030582   -1167.2708    37.040294    23215.444     2.996924     28.52719 
   63500    42.923107   -1172.7434    196.19282    23036.892    3.0201521    28.453867 
   63600    42.879219   -1170.0127   -65.433039    23248.676    2.9926401    28.540796 
   63700    44.760033   -1179.6455     288.2169    22907.862    3.0371634    28.400644 
   63800    46.010195   -1171.4966   -23.477126    23208.551    2.9978141    28.524366 
   63900    45.374984   -1176.1359    184.31079    23014.586    3.0230793     28.44468 
   64000    42.105555    -1172.427    30.145926    23148.766    3.0055563    28.499853 
   64100    44.372989   -1179.3766    171.10537    22985.902    3.0268518    28.432858 
   64200    46.167786   -1174.0766    29.036456    23144.228    3.0061456     28.49799 
   64300    46.422312   -1169.1506     178.4108    23097.357     3.012246    28.478739 
   64400    47.296893   -1160.0805    10.377931    23317.208    2.9838443    28.568812 
   64500    45.942891   -1166.2631    239.93716    23095.159    3.0125327    28.477836 
   64600    45.010017   -1161.5069   -28.018991    23325.344    2.9828036    28.572135 
   64700    45.690592   -1171.7007    158.58287    23088.639    3.0133834    28.475156 
   64800     43.23923   -1171.3021    57.308183    23154.112    3.0048623    28.502047 
   64900     42.13802   -1176.5006    136.83259    23043.386     3.019301     28.45654 
   65000    47.704242   -1175.9671    64.641383    23105.227    3.0112199    28.481974 
   65100    47.263789   -1174.7354     131.9408    23070.302    3.0157785    28.467615 
   65200    45.148467   -1173.2538    64.031022    23132.281    3.0076982    28.493086 
   65300    44.763358   -1175.9916    130.68642     23058.89    3.0172711    28.462921 
   65400     47.35901   -1173.8214    73.918011    23119.115     3.009411    28.487679 
   65500     48.91345   -1172.3098    102.99221    23122.617    3.0089553    28.489117 
   65600    43.373269   -1164.0112    103.51996    23198.785     2.999076    28.520365 
   65700    44.722709   -1160.0713    90.383516    23252.263    2.9921785    28.542263 
   65800    49.084068   -1164.2713    110.63321    23209.778    2.9976556    28.524869 
   65900    47.456786   -1165.3882    91.331093    23199.566     2.998975    28.520685 
   66000    45.294483   -1166.9726    112.01961    23160.812    3.0039931    28.504795 
   66100    44.975034   -1164.2634    56.662286    23228.296    2.9952658    28.532453 
   66200    47.429525    -1164.117    137.83796    23183.235    3.0010876    28.513991 
   66300    47.708562   -1160.6561     72.50101    23270.377    2.9898493    28.549673 
   66400    46.305488   -1160.1955    114.34943    23251.576    2.9922669    28.541982 
   66500    47.863083   -1161.2364    79.876569    23268.825    2.9900487    28.549039 
   66600    51.199821   -1167.3939     134.7423    23169.049    3.0029251    28.508174 
   66700     46.80411   -1164.9539    28.435872    23252.665    2.9921267    28.542428 
   66800    45.513145   -1169.9804    213.59001     23073.42    3.0153709    28.468898 
   66900     47.97788   -1164.4065   -41.119531    23317.241    2.9838402    28.568825 
   67000    49.296005   -1168.6335    197.31388    23104.444     3.011322    28.481652 
   67100    45.955502   -1161.0697    48.720329    23280.845    2.9885049    28.553953 
   67200     47.59573    -1165.698    141.16145    23167.965    3.0030656     28.50773 
   67300    48.816911   -1162.1064    52.299663     23274.94    2.9892631    28.551539 
   67400     49.27514   -1163.2521    162.16539     23193.16    2.9998034     28.51806 
   67500    48.510491   -1159.7477    6.3873227    23339.498    2.9809948    28.577912 
   67600    46.508563   -1167.4264    245.81198    23083.228    3.0140897    28.472931 
   67700    47.052807   -1162.1774   -77.436127    23359.481    2.9784446    28.586066 
   67800    49.734798   -1171.5708    262.31032    23029.166    3.0211654    28.450686 
   67900    51.359551   -1162.0295    9.1534648    23297.375    2.9863845     28.56071 
   68000    47.825858   -1163.4763    142.96725    23182.336     3.001204    28.513623 
   68100    46.236843   -1161.5184    64.572697    23252.577    2.9921381    28.542392 
   68200    50.657877   -1165.1932    136.24786    23175.922    3.0020346    28.510993 
   68300    52.064171   -1161.4175    56.911022    23284.314    2.9880597    28.555371 
   68400    47.342586   -1157.8129    164.18066    23246.487    2.9929219      28.5399 
   68500    47.556746   -1151.2004    19.255368    23424.217    2.9702133    28.612449 
   68600    52.064278   -1157.1745    182.21194     23244.55    2.9931713    28.539107 
   68700    50.531152   -1155.4628    43.645975    23357.928    2.9786427    28.585433 
   68800    48.140917   -1157.5647    142.46707    23265.124    2.9905244    28.547525 
   68900    48.209223    -1153.269    61.600726    23368.153    2.9773393    28.589603 
   69000    50.348768   -1155.1052    132.66306    23306.247    2.9852477    28.564335 
   69100    49.848207   -1153.7918     86.50157    23364.375    2.9778207    28.588063 
   69200    49.503004   -1152.5415    104.66695    23361.348    2.9782066    28.586828 
   69300    51.315774   -1154.9099    97.285982    23338.825    2.9810807    28.577638 
   69400    51.540195   -1157.2185    101.86452    23304.063    2.9855275    28.563442 
   69500    49.420681    -1158.272     100.8831    23288.974    2.9874618    28.557276 
   69600    48.939114   -1158.3508    88.768648    23285.749    2.9878756    28.555958 
   69700    51.855647   -1161.8641    129.69522    23221.153    2.9961872    28.529528 
   69800    53.475358   -1160.5668    48.246623    23303.311    2.9856239    28.563135 
   69900     48.15457   -1158.2762    164.55513    23229.722    2.9950819    28.533037 
   70000    48.949132   -1157.5108    15.694222    23345.144    2.9802737    28.580217 
   70100    53.002867   -1165.7834    195.81171    23142.909     3.006317    28.497449 
   70200    50.718048   -1158.4785    27.493471    23338.897    2.9810715    28.577667 
   70300    47.282425   -1160.4586    140.96794    23229.791     2.995073    28.533065 
   70400    48.365629   -1157.6346    65.900194    23317.798    2.9837689    28.569053 
   70500    50.777037   -1155.3434    134.53083    23299.543    2.9861067    28.561596 
   70600    52.305138   -1152.5652    50.756708    23391.877    2.9743197    28.599275 
   70700    52.503345   -1157.2799     223.0666    23216.059    2.9968445    28.527442 
   70800    48.929144   -1150.8347   -70.010139    23491.873    2.9616591    28.639969 
   70900    49.224052   -1159.6239    258.90641    23160.712    3.0040062    28.504754 
   71000    53.277631    -1150.397   -14.459591    23469.951    2.9644255    28.631058 
   71100     52.45304   -1151.3026     181.5892    23317.026    2.9838676    28.568738 
   71200    51.723271   -1149.2065    42.551394    23438.884    2.9683547    28.618419 
   71300    50.567642   -1153.2856    139.49826    23321.219    2.9833312     28.57045 
   71400    49.383802   -1150.3473    76.923267    23389.549    2.9746157    28.598326 
   71500    53.980443   -1151.5692    113.87848    23363.022    2.9779931    28.587511 
   71600     53.33216   -1147.7541    90.934878    23425.163    2.9700933    28.612834 
   71700    51.012139   -1145.6043    106.23192    23431.298    2.9693157    28.615331 
   71800    53.252927    -1148.928    89.144616    23407.488    2.9723361    28.605636 
   71900    54.400382   -1151.8087     117.1402      23356.9    2.9787737    28.585014 
   72000    50.761203   -1150.5866    79.770414    23391.781    2.9743318    28.599236 
   72100    50.869884    -1152.738    113.92177    23344.275    2.9803847    28.579862 
   72200     55.99143   -1155.3851    107.14411    23324.993    2.9828485    28.571991 
   72300    54.177963   -1153.6342     67.11321    23370.791    2.9770032    28.590679 
   72400    49.010126   -1153.4852    162.85681    23299.205    2.9861499    28.561458 
   72500    52.086444   -1153.3589    28.230645     23409.59    2.9720691    28.606492 
   72600    54.034493   -1154.5679    147.62581    23307.243    2.9851201    28.564742 
   72700    52.233216    -1146.697    59.457832    23458.472    2.9658761    28.626389 
   72800    56.371625   -1148.6068    145.46414    23384.746    2.9752267    28.596369 
   72900    54.651825   -1142.4018    48.850572    23516.225    2.9585922    28.649862 
   73000    48.871548   -1144.0439    164.55437    23404.058    2.9727717    28.604238 
   73100    52.278278   -1144.7044    18.309439    23505.622    2.9599268    28.645555 
   73200    55.577502   -1153.7742    207.27423    23278.075    2.9888605    28.552821 
   73300    53.648557   -1146.9575   -4.2515071    23496.278    2.9611039    28.641759 
   73400    52.676872   -1152.5132    182.52484    23304.052    2.9855288    28.563438 
   73500    54.793834   -1151.3029    49.820668     23417.08    2.9711185    28.609543 
   73600    57.827549    -1151.645    128.78789    23361.827    2.9781455    28.587023 
   73700    52.439522   -1144.2577    85.549956    23470.856    2.9643111    28.631426 
   73800    51.834765   -1143.9771    92.750755    23461.302    2.9655183     28.62754 
   73900    59.110185   -1149.6816    118.68027    23392.559     2.974233    28.599553 
   74000      54.1601   -1142.5091    68.672381     23504.69    2.9600442    28.645177 
   74100    51.524661   -1138.9124     149.6308    23485.537    2.9624581    28.637394 
   74200    55.298446   -1138.8512    20.135361    23587.022    2.9497119    28.678584 
   74300    57.426598   -1148.3844     231.4417    23323.014    2.9831016    28.571183 
   74400    53.414125   -1139.5049    -89.99193    23644.682    2.9425187    28.701934 
   74500    52.739838   -1147.8761    282.16674    23292.706    2.9869831    28.558802 
   74600    55.059461   -1142.0484    11.154501    23564.434    2.9525394    28.669426 
   74700    56.952921   -1147.5346    158.58088    23392.097    2.9742918    28.599365 
   74800     54.49945   -1143.4127    45.305556    23508.046    2.9596216     28.64654 
   74900    53.034561   -1143.8959    156.04736     23424.45    2.9701837    28.612544 
   75000    59.438693   -1141.8385    34.285444    23551.718    2.9541335    28.664269 
   75100    58.471129   -1145.3112    169.25694    23408.355    2.9722259    28.605989 
   75200    54.649118   -1141.1827    28.574165    23548.227    2.9545715    28.662852 
   75300    53.683506   -1140.5499     110.0001    23491.406     2.961718     28.63978 
   75400    55.885538   -1137.4304    106.71231    23541.201    2.9554533    28.660001 
   75500    56.084544   -1132.2738    79.247007    23617.979    2.9458456    28.691125 
   75600    58.619018      -1138.1    138.25819    23513.162    2.9589776    28.648618 
   75700    57.052279   -1139.3671    24.451101    23576.671     2.951007    28.674388 
   75800    55.025447   -1144.3461    232.81249    23366.258    2.9775807    28.588831 
   75900    54.726362    -1134.962   -71.029032     23696.16    2.9361263    28.722748 
   76000    58.600604   -1144.0875    254.60929    23357.055    2.9787539    28.585077 
   76100    58.836273    -1141.833     10.98676    23564.736    2.9525016    28.669549 
   76200    55.527161   -1144.0713    148.33254    23438.413    2.9684143    28.618228 
   76300    55.730766   -1139.8512    58.877887    23547.733    2.9546335    28.662652 
   76400    58.240557    -1141.756    140.27681    23470.116    2.9644046    28.631125 
   76500    57.089604    -1137.967    54.628688    23585.291    2.9499285    28.677882 
   76600    55.927537   -1135.7594    161.51392    23523.338    2.9576976     28.65275 
   76700    59.860016   -1131.1829    29.266403    23678.537    2.9383116    28.715626 
   76800    57.837978   -1129.6748    147.81161     23608.96     2.946971    28.687472 
   76900    57.154647   -1132.1463    79.805624    23645.934     2.942363     28.70244 
   77000     55.33933   -1136.3501    89.049037    23583.317    2.9501753    28.677082 
   77100    55.834959   -1141.8973    119.62138    23497.894    2.9609003    28.642416 
   77200    60.078429   -1142.6909    80.137611    23515.634    2.9586666    28.649622 
   77300     62.18201   -1141.9968    117.06236    23500.683    2.9605489    28.643549 
   77400    54.534878   -1135.7146    81.232691    23583.989    2.9500913    28.677355 
   77500    55.125375   -1136.2666    126.66578    23538.541    2.9557873    28.658922 
   77600    59.307125   -1137.0192    46.645422    23594.543    2.9487717    28.681632 
   77700    58.863537   -1140.5521    185.17734    23453.333     2.966526    28.624299 
   77800    55.902918   -1131.5401   -1.9073141    23686.312    2.9373471    28.718769 
   77900    60.860768   -1136.9377    225.99351      23466.7    2.9648362    28.629736 
   78000    61.619273   -1129.3852   -21.510695    23745.632    2.9300092    28.742723 
   78100    58.351764   -1132.9707    195.22604     23543.18    2.9552049    28.660804 
   78200    58.460301   -1131.3437    63.698581    23667.549    2.9396758    28.711183 
   78300    60.146475    -1135.167    104.41344    23593.122    2.9489492    28.681056 
   78400    58.517179   -1137.7601    97.842042    23565.506    2.9524051    28.669861 
   78500    53.976473   -1136.5921    97.888533    23571.968    2.9515957    28.672482 
   78600    56.517029    -1133.358    115.17842    23601.804    2.9478645    28.684574 
   78700    58.124709   -1128.8848    25.728626    23721.706    2.9329645    28.733066 
   78800    63.163186   -1139.6015    221.75006    23462.694    2.9653423    28.628107 
   78900    59.137313   -1133.2869   -23.768283     23699.51    2.9357113    28.724102 
   79000    56.490898   -1137.0154    205.27515    23481.086    2.9630197    28.635585 
   79100      59.1972   -1133.3733    20.830316    23677.071    2.9384935    28.715034 
   79200    61.470762   -1136.1678    157.80341    23546.571    2.9547792     28.66218 
   79300    59.365196   -1131.1039    69.135518    23661.484    2.9404292    28.708731 
   79400    58.815738   -1130.2148    118.01859    23631.159    2.9442026    28.696461 
   79500    62.068824   -1129.2923    83.430762    23666.521    2.9398035    28.710768 
   79600    65.796626   -1126.4201    116.45504    23683.704    2.9376705    28.717715 
   79700    61.432539   -1117.1189     84.40749    23803.903    2.9228366    28.766215 
   79800    58.048897   -1121.6125    105.41662    23741.395     2.930532    28.741014 
   79900    60.779436    -1127.613    109.02834     23676.13    2.9386104    28.714653 
   80000     59.88795   -1124.4701    69.117062    23738.211    2.9309251    28.739729 
   80100    62.518077   -1128.2979    159.11157    23638.969    2.9432298    28.699622 
   80200    67.665747   -1125.4659    -6.641738    23807.502    2.9223948    28.767665 
   80300    60.631144   -1129.2621    259.49208    23552.445    2.9540423    28.664564 
   80400    57.747201   -1120.5274   -56.246911    23900.547    2.9110179    28.805093 
   80500    61.270671   -1125.1441    197.22575    23658.733    2.9407712    28.707618 
   80600     63.33159   -1120.4895    37.977331    23831.589    2.9194411    28.777363 
   80700    60.770579   -1121.5291    147.86488    23727.697    2.9322239    28.735485 
   80800    59.735005   -1121.4908    56.017965    23797.989     2.923563    28.763833 
   80900    61.797411   -1127.3434    165.15067    23638.791    2.9432521     28.69955 
   81000    63.403514   -1130.0749    3.4610272    23732.146    2.9316741    28.737281 
   81100    59.426118   -1134.8597    173.72806    23543.566    2.9551564    28.660961 
   81200    58.800585   -1129.3401    68.154926    23682.569    2.9378114    28.717256 
   81300     63.44126   -1129.1903    94.972512    23675.695    2.9386643    28.714477 
   81400    61.661511   -1125.6254    125.68346    23691.878     2.936657    28.721018 
   81500    61.883461   -1124.6701    69.583719    23747.318    2.9298012    28.743403 
   81600    63.123222   -1124.8528    117.29514    23709.347    2.9344934    28.728075 
   81700    66.458422   -1120.7164    79.477267    23798.664    2.9234801    28.764105 
   81800     64.57757   -1119.3612    120.21363    23781.742    2.9255603    28.757285 
   81900    60.481289   -1119.4382    63.513846    23821.278    2.9207048    28.773212 
   82000    61.576119   -1122.8602    176.95854    23690.752    2.9367966    28.720563 
   82100    63.636685   -1120.0506   -3.0817845    23866.011    2.9152304    28.791212 
   82200    63.784055   -1125.4776    215.47871     23632.08    2.9440878    28.696834 
   82300    55.795544   -1118.4397    -5.959364    23870.645    2.9146645    28.793075 
   82400    60.841668   -1127.4265    181.82676    23625.963    2.9448502    28.694358 
   82500    65.268985   -1127.3827    51.709743     23727.03    2.9323063    28.735216 
   82600    62.552555   -1127.8036    105.01628    23681.118    2.9379913    28.716669 
   82700    61.381711   -1125.7177    106.10281    23690.222    2.9368623    28.720349 
   82800    67.409112   -1127.9233    77.025334    23701.721    2.9354375    28.724995 
   82900    66.749898   -1125.9651    137.69807     23681.49    2.9379452     28.71682 
   83000    57.789828   -1113.6397    5.7365689    23917.283    2.9089809    28.811815 
   83100    62.042385   -1121.5354    298.46699    23603.679    2.9476303    28.685333 
   83200    66.391054   -1118.2088   -81.694879    23934.853    2.9068455    28.818868 
   83300    63.836317   -1126.0211    212.60745    23609.326    2.9469254    28.687621 
   83400     60.89195   -1121.0286    45.434769    23785.341    2.9251176    28.758736 
   83500    65.757214    -1126.611    126.47156    23668.788    2.9395218    28.711685 
   83600    67.901283   -1125.7683    94.920864    23721.572     2.932981    28.733012 
   83700     60.73424   -1114.3782     77.73581    23859.267    2.9160544      28.7885 
   83800    62.484393   -1116.8292    182.53053    23769.418    2.9270772    28.752317 
   83900    68.158974   -1114.9987   -65.363766    24004.132     2.898456    28.846647 
   84000    63.684767   -1118.3642    253.40613    23706.949    2.9347901    28.727107 
   84100    61.109645   -1110.3636    7.7120374    23987.221    2.9004994    28.839871 
   84200    67.485649   -1114.9185    173.61422    23808.215    2.9223073    28.767952 
   84300     67.19556   -1112.1307    31.399152    23958.772    2.9039435    28.828465 
   84400    66.249055   -1116.6319    175.19061    23782.067    2.9255204    28.757416 
   84500    63.679868     -1112.54   -48.780872    24003.122    2.8985779    28.846242 
   84600    63.885034   -1119.0905    167.59897    23759.683    2.9282765    28.748391 
   84700    67.518849   -1117.0117    98.404575    23845.955    2.9176822    28.783145 
   84800     69.39311   -1112.9747    71.571382    23922.494    2.9083473    28.813907 
   84900    64.032291   -1111.3761    145.77346    23878.464      2.91371    28.796219 
   85000    62.250787   -1108.3444    39.630396    24002.807     2.898616    28.846116 
   85100    66.878803   -1115.1283    205.64521    23792.512     2.924236    28.761626 
   85200    64.876505   -1105.6856   -124.65353    24162.368    2.8794744    28.909894 
   85300    66.618687    -1115.448    320.65281     23678.76     2.938284    28.715716 
   85400    66.973535   -1111.2739   -17.247476    23996.437    2.8993855    28.843564 
   85500    62.629896    -1114.501    174.67455    23790.331    2.9245041    28.760747 
   85600    64.796008    -1115.302    44.543975    23876.164    2.9139908    28.795294 
   85700    71.392076   -1122.3113     126.3291     23744.46    2.9301538     28.74225 
   85800    66.299437   -1118.8005    103.54527    23790.882    2.9244364    28.760969 
   85900    62.170438   -1116.5515    33.673553    23854.758    2.9166055    28.786686 
   86000    66.706172   -1123.7585    296.45436    23574.659    2.9512588    28.673573 
[...]
  148800    133.13313   -719.06557     50.59367    33619.818    2.0694615    32.274916 
  148900    130.70082   -718.02391    62.508601    33601.914    2.0705642    32.269186 
  149000    130.09956   -723.81345    64.641401    33418.366    2.0819366    32.210322 
  149100    126.09207   -722.38057    27.984783    33509.335    2.0762847    32.239523 
  149200    126.99919   -721.61904   -33.307869    33681.693    2.0656599    32.294704 
  149300    126.95115   -717.77683   -30.937763    33749.711    2.0614968    32.316428 
  149400    129.40544    -714.9904    30.812387    33682.065     2.065637    32.294823 
  149500    132.34256   -707.14604    70.554461    33815.486    2.0574869    32.337408 
  149600    138.60395    -707.3116    71.035522    33838.988    2.0560579    32.344898 
  149700    125.58066   -710.13187    62.228971     33728.48    2.0627944     32.30965 
  149800    124.14359   -710.24842    37.419336    33762.982    2.0606865    32.320663 
  149900    131.44622   -710.67485    28.427207     33801.24    2.0583541    32.332866 
  150000    133.72352   -710.26803    43.197267    33790.684    2.0589971    32.329501 
  150100    128.22776   -710.99154    65.392796    33687.037    2.0653322    32.296412 
  150200    125.32437   -721.26269    86.334795    33310.347    2.0886879     32.17558 
  150300    126.66707    -730.1224    97.486804    33023.319    2.1068421    32.082897 
  150400    130.82971   -731.70719    95.408686     32996.04    2.1085839     32.07406 
  150500    136.52959   -728.01524    86.961021    33140.293    2.0994057    32.120733 
  150600    133.91253   -727.32477    90.719704    33126.028    2.1003098    32.116124 
  150700    127.76102   -732.50763    92.768982    32951.868    2.1114105    32.059741 
  150800    125.49514   -732.05205    85.430522    32993.663    2.1087358     32.07329 
  150900    129.70825   -728.16525    92.803838    33119.369    2.1007321    32.113971 
  151000    131.18889   -724.41607    97.347438    33219.387    2.0944071    32.146266 
  151100    128.84164   -718.46423    99.623272    33347.911    2.0863352     32.18767 
  151200    133.55715   -718.85742    111.14906    33325.338    2.0877484    32.180406 
  151300    136.12399   -718.26818    145.48923    33254.076    2.0922224    32.157452 
  151400    129.89497   -721.74929    157.60564    33138.615     2.099512    32.120191 
  151500    121.83848   -717.97103    135.87935    33295.459    2.0896219    32.170786 
  151600    129.43062   -714.64955    121.74098    33495.578    2.0771375     32.23511 
  151700    131.47146   -708.49302    117.04762    33714.271    2.0636638    32.305113 
  151800    134.93963   -709.58678    110.97776    33781.339    2.0595667     32.32652 
  151900    128.42263    -701.7676     106.9897    34077.014    2.0416965     32.42056 
  152000    130.80468   -699.98447    115.63614     34236.91    2.0321612    32.471189 
  152100     137.2502   -693.95199    140.02028    34472.612    2.0182665    32.545534 
  152200     129.8854   -679.63475    155.85567    34882.917     1.994527    32.674147 
  152300    138.88327   -682.38649    165.04358    34874.422    1.9950128    32.671495 
  152400    142.45913   -681.05475    105.93139    35146.278    1.9795814     32.75617 
  152500    126.46318   -678.63888    71.211604    35260.253    1.9731827     32.79154 
  152600    129.03741   -682.06421    72.987676    35165.356    1.9785075    32.762095 
  152700    137.52832   -686.60565    57.067015    35099.308    1.9822305    32.741571 
  152800    135.26229   -688.87196    7.8866445    35136.816    1.9801145     32.75323 
  152900    128.84667   -697.40149   -4.4530924    34867.305      1.99542    32.669272 
  153000    128.49089   -697.40712    24.635221    34735.774    2.0029759    32.628141 
  153100    133.94433   -698.99336    66.401727    34551.233     2.013674    32.570257 
  153200    133.44262   -693.86838    98.588518    34556.438    2.0133707    32.571892 
  153300     140.8002   -699.28416    105.63326    34381.401    2.0236209    32.516804 
  153400    136.04777   -695.47639    111.04651     34417.29    2.0215107    32.528115 
  153500    127.28135   -693.69864    149.60463    34275.243    2.0298885    32.483303 
  153600    135.85664   -702.36956    183.63469    33949.996    2.0493352    32.380229 
  153700    134.86751    -691.0276    219.96292    34131.904    2.0384131    32.437958 
  153800    141.10172   -684.04629    226.21647    34353.747    2.0252499    32.508084 
  153900    145.27852    -689.4908    136.25882    34491.245    2.0171762    32.551397 
  154000    135.54343   -694.38751    99.156199    34391.038    2.0230538    32.519842 
  154100    136.60181   -703.56569    86.443008    34168.396    2.0362361    32.449514 
  154200    132.70064   -708.83108    50.010522    34060.477    2.0426878    32.415315 
  154300     129.5493   -710.89656   -16.162453    34119.427    2.0391585    32.434005 
  154400      136.186    -720.5423    20.653887    33745.018    2.0617835     32.31493 
  154500    134.33323   -719.64078    45.877412    33668.359    2.0664779    32.290442 
  154600    126.41267   -714.74662    49.879973    33730.778    2.0626539    32.310384 
  154700    135.86366   -716.23239    17.678481    33783.373    2.0594427    32.327169 
  154800     136.8531   -706.49565   -70.219101     34282.23    2.0294747     32.48551 
  154900    134.79065   -708.03503   -9.0381134    34056.174    2.0429458     32.41395 
  155000    123.67751    -704.9048    34.023306    33964.609    2.0484534    32.384874 
  155100    124.27521   -704.84084    32.265345    33925.534    2.0508128     32.37245 
  155200    140.25302   -711.53111    22.401133    33775.696    2.0599108     32.32472 
  155300    136.91755   -711.76017    11.146142    33744.981    2.0617858    32.314918 
  155400    131.16048   -713.45404    1.4847893    33693.706    2.0649234    32.298543 
  155500    131.43053   -715.59507   -21.285749     33726.57    2.0629112     32.30904 
  155600    140.77794   -715.27745    57.881987    33593.219    2.0711002    32.266402 
  155700    140.88655   -704.41971     84.29503    33870.518    2.0541439    32.354941 
  155800    134.58652   -702.57286    99.911454     33910.98     2.051693     32.36782 
  155900    122.91908   -702.76055    144.58278    33763.783    2.0606376    32.320919 
  156000    131.91131   -705.55873    181.27828    33657.734    2.0671302    32.287045 
  156100     139.9945   -707.33419    165.18694    33720.077    2.0633085    32.306967 
  156200    136.80707   -705.60342     170.9753      33749.3    2.0615219    32.316297 
  156300    133.75868   -704.35916    196.22149    33689.098    2.0652058     32.29707 
  156400    137.73896   -705.78801    374.82726    33188.181    2.0963764    32.136197 
  156500    147.63795   -710.39053    231.48388    33509.972    2.0762453    32.239727 
  156600    135.99123   -706.18832    174.97971    33764.863    2.0605717    32.321264 
  156700    129.97753   -706.29411    160.51724     33841.55    2.0559023    32.345714 
  156800    131.48136   -699.07098    170.43449    34096.905    2.0405055    32.426867 
  156900    136.14762   -693.70065     153.4975     34355.47    2.0251483    32.508627 
  157000    140.32017   -694.05276     90.79509    34561.513    2.0130751    32.573487 
  157100     135.0888   -688.65497    72.721206    34761.919    2.0014695    32.636325 
  157200    131.33838   -682.83976    41.652393    35037.137    1.9857479    32.722228 
  157300    139.68152   -675.00036    -42.19846     35593.45    1.9547113    32.894506 
  157400    145.40883   -681.63754   -64.571294    35504.904    1.9595862    32.867205 
  157500    135.33521    -685.8672    54.709301    34965.519    1.9898152    32.699918 
  157600      130.642    -679.9613    71.267823    35097.434    1.9823364    32.740989 
  157700    133.86293   -669.67669    88.750944    35390.416    1.9659255     32.83184 
  157800    144.70189   -677.97191    183.06552    34925.501    1.9920951    32.687438 
  157900    143.67113   -686.65922    208.60584    34595.558    2.0110941    32.584179 
  158000      136.517   -688.31575    198.35867    34556.274    2.0133803    32.571841 
  158100    134.81206   -685.79184    188.30955    34685.036     2.005906    32.612247 
  158200    138.08405   -679.56922    163.82611    35006.152    1.9875055     32.71258 
  158300    142.08874    -675.3898     117.1535    35320.511    1.9698164    32.810209 
  158400    140.78478   -675.44749    39.604777    35566.045    1.9562175    32.886061 
  158500    133.28374   -668.94258    49.295371    35724.941    1.9475167    32.934963 
  158600    136.52035   -665.61398    43.271939    35915.258    1.9371967    32.993344 
  158700    145.66346   -666.80067    12.906791    36097.093    1.9274383     33.04893 
  158800    140.99757   -665.05591    27.664737    36098.059    1.9273868    33.049225 
  158900    138.42249   -667.04181     130.9237    35708.146    1.9484327      32.9298 
  159000    134.43578    -659.2901    163.10877     35836.99    1.9414276    32.969359 
  159100     138.8618   -649.77313     161.6449    36181.128    1.9229616    33.074557 
  159200    144.87254   -650.56413    148.89088    36218.446    1.9209803    33.085924 
  159300     142.5499   -655.23122    98.880221    36200.842    1.9219144    33.080563 
  159400    134.85658   -651.82371    7.7922607      36561.3    1.9029663    33.189997 
  159500    134.34344   -648.01063    39.593418    36555.785    1.9032534    33.188328 
  159600    145.05894   -652.22168    54.667658    36387.293    1.9120664    33.137259 
  159700    145.92755   -658.04866    82.430315    36056.388    1.9296143    33.036503 
  159800    139.35397    -657.0211    142.38473    35804.328    1.9431986     32.95934 
  159900    139.46061   -660.53203    235.24436    35356.231    1.9678263    32.821265 
  160000    143.63158    -666.6458    247.47728    35146.069    1.9795932    32.756105 
  160100    141.13871   -668.21781    145.15174    35384.156    1.9662733    32.829904 
  160200    134.95541   -671.92182    108.36587    35327.451    1.9694294    32.812357 
  160300    138.17891   -678.60327    83.041962    35192.739     1.976968    32.770597 
  160400      145.512   -679.40268   -14.615082    35485.035    1.9606834    32.861073 
  160500     146.2742    -677.5042   -34.251507    35607.771    1.9539252    32.898916 
  160600    132.88692   -675.91311    17.225999    35438.631    1.9632508    32.846743 
  160700    138.21171   -683.05337     39.92702    35188.775    1.9771908    32.769367 
  160800    141.66204   -679.08224    65.793099    35240.919    1.9742652    32.785545 
  160900    146.35971   -671.74031    115.63691    35324.875     1.969573     32.81156 
  161000    155.75021   -670.40197    173.70346    35218.574    1.9755178    32.778614 
  161100     138.1055   -663.56374    201.25485    35185.548    1.9773721    32.768365 
  161200    144.43483   -676.96824    193.44535    34780.796    2.0003832    32.642231 
  161300     145.5713   -685.95502    159.77129     34575.01    2.0122892    32.577726 
  161400    138.41621   -689.57602    118.80964     34550.25    2.0137313    32.569948 
  161500    137.78036   -690.58723      80.6386    34653.272    2.0077446    32.602288 
  161600    142.02874   -684.60107    37.944041    35025.522    1.9864064    32.718612 
  161700    151.41792    -680.2487    6.9902957    35397.465     1.965534     32.83402 
  161800    141.71755    -670.8728    4.8567336    35698.996    1.9489321    32.926988 
  161900    139.14446   -669.27925    37.828412    35648.743    1.9516795     32.91153 
  162000    143.91913   -674.38804    77.953398     35388.86    1.9660119    32.831359 
  162100    142.98033   -673.80643    112.81208     35271.23    1.9725686    32.794942 
  162200    141.76316   -684.06249    193.33391    34712.488    2.0043196    32.620848 
  162300     143.5153   -702.53019    263.48327    33983.255    2.0473295    32.390799 
  162400    138.09763   -703.57812    171.03637    34177.523    2.0356923    32.452403 
  162500    139.05252   -698.19255    157.60843    34367.362    2.0244475    32.512378 
  162600    148.54687   -695.54968    164.65269    34476.601     2.018033    32.546789 
  162700     143.3939    -687.4241    170.72585    34660.846    2.0073059    32.604663 
  162800    138.23474   -677.34966    98.728488    35151.883    1.9792658    32.757911 
  162900    149.61539   -683.33947    73.914903    35135.543    1.9801863    32.752834 
  163000    143.50834   -678.88782    64.881742    35316.541    1.9700378    32.808979 
  163100    129.86841   -675.06645    33.460615    35522.726    1.9586031    32.872704 
  163200    134.54996   -666.37705   -16.830098    35987.215    1.9333233    33.015363 
  163300    145.11523   -671.28226    49.589802      35653.4    1.9514246    32.912963 
  163400    148.77171   -680.64596    116.01529    35172.878    1.9780844    32.764431 
  163500    136.73337   -675.87542    139.01694    35182.299    1.9775547    32.767356 
  163600    139.61444   -675.04686    119.78805    35300.874    1.9709121    32.804127 
  163700    148.55401   -673.42262    117.35104    35450.718    1.9625814    32.850477 
  163800    142.76851   -664.23669    124.11746     35757.08    1.9457663    32.944836 
  163900    140.96413   -657.49877    86.360329    36149.839     1.924626     33.06502 
  164000    151.44137    -657.0288    18.041978    36535.644    1.9043025    33.182232 
  164100    156.90302   -642.39806    -14.32128    37246.688    1.8679492     33.39611 
  164200    144.02748     -638.054    62.153675    37088.054    1.8759388    33.348631 
  164300    141.93792   -648.76856    111.19552    36562.775    1.9028895    33.190443 
  164400    145.19417   -654.40339    129.53575    36358.117    1.9136007      33.1284 
  164500    142.63833    -648.8456    192.73908    36324.733    1.9153594    33.118257 
  164600      145.359   -637.92732    154.01248    36923.082    1.8843205    33.299112 
  164700     145.5742   -622.79789    51.837697    37941.627    1.8337358    33.602531 
  164800    149.02589   -625.35679    56.551095    37897.039    1.8358933    33.589362 
  164900    141.36484    -623.3829    88.399776    37813.416    1.8399533    33.564638 
  165000    140.90795   -628.49239    105.13199    37571.641    1.8517935    33.492949 
  165100    148.67846   -631.04238    110.25073    37435.118    1.8585469    33.452332 
  165200    152.03122   -629.61789    114.41718    37429.867    1.8588076    33.450768 
  165300    144.61039   -631.61884     82.66691    37430.357    1.8587833    33.450914 
  165400    139.07009   -632.57947    21.936369    37586.948    1.8510394    33.497497 
  165500    145.60555   -637.09669   -5.7483366    37564.214    1.8521596    33.490742 
  165600    155.46697   -640.02568    103.55095    37104.519    1.8751064    33.353566 
  165700     157.3298    -644.8042    132.73011    36884.642    1.8862843    33.287552 
  165800    138.84931   -638.44732    136.89612     37011.93    1.8797971      33.3258 
  165900    142.26147   -637.14555    125.81001    37135.717    1.8735311    33.362911 
  166000    150.34126   -635.18382    35.687501    37604.245    1.8501879    33.502634 
  166100    142.01215   -620.42594   -6.5180202    38223.823    1.8201978    33.685633 
  166200    148.82442   -624.66419    50.893949    37845.386     1.838399    33.574095 
  166300    160.31316   -628.37519    129.06905    37386.228    1.8609773    33.437763 
  166400    149.25647   -632.39506    127.31199    37127.869    1.8739271    33.360561 
  166500    146.05237   -638.09689    108.55694    36967.658    1.8820484    33.312507 
  166600    145.21241   -640.98751    86.960139    36931.772    1.8838771    33.301724 
  166700    142.34971   -636.79878    17.348899    37326.004    1.8639799    33.419799 
  166800    154.26811    -642.1633    18.028077    37247.624    1.8679023     33.39639 
  166900    149.47233   -637.72922    111.39348    37073.065    1.8766973    33.344138 
  167000    139.65758   -639.50914    152.53879    36826.926    1.8892405    33.270181 
  167100    145.61057   -646.68942    130.38696    36685.752    1.8965107    33.227613 
  167200    156.20816   -643.80705    108.76029    36849.614    1.8880773    33.277011 
  167300    158.76703   -638.87711    11.368367    37381.439    1.8612157    33.436335 
  167400    138.90702   -635.37165    -20.24908    37527.698    1.8539618    33.479886 
  167500    146.39264   -645.44081    64.070151    36930.256    1.8839545    33.301268 
  167600    153.65092   -650.87173    116.07264    36613.199    1.9002688    33.205694 
  167700    142.93095   -643.50107      131.579     36763.96    1.8924762    33.251208 
  167800    139.34832   -638.55695    128.19153    36914.018    1.8847832    33.296387 
  167900    155.38008   -641.07865    118.70454    36933.363    1.8837959    33.302202 
  168000      150.812   -637.58879    18.836366    37366.471    1.8619613    33.431872 
  168100    147.03503   -644.30021   -16.364667    37232.415    1.8686653    33.391844 
  168200    145.57696   -652.06292    65.425129    36700.648    1.8957409     33.23211 
  168300    141.51441    -644.8829    101.09284    36876.632     1.886694    33.285142 
  168400    149.29857    -633.8038    125.25222    37295.725    1.8654932     33.41076 
  168500    150.16417   -628.99143    152.61682    37385.725    1.8610023    33.437613 
  168600    150.27087   -629.80832     103.5183    37521.078    1.8542889    33.477918 
  168700    147.89846   -632.85174    14.181594    37750.182    1.8430354    33.545918 
  168800     143.1772    -636.2201    11.817034     37612.95    1.8497597    33.505219 
  168900    144.43035   -639.76975    80.162771    37229.677    1.8688027    33.391025 
  169000    155.42918   -636.46006    110.01549    37260.727    1.8672454    33.400306 
  169100    158.11377   -636.82998    122.78264    37222.732    1.8691514    33.388949 
  169200    150.10697   -639.26285    132.49167    37083.514    1.8761685    33.347271 
  169300     144.6295   -633.55765    61.743814    37538.074    1.8534494    33.482972 
  169400    146.51575   -626.97339   -4.5964372    38040.676    1.8289612    33.631746 
  169500    155.88232   -631.78081    30.413499    37755.576    1.8427721    33.547516 
  169600    154.15759   -643.51085    112.06249    36986.983     1.881065     33.31831 
  169700    147.73614   -650.19697    127.23401    36656.233    1.8980379    33.218698 
  169800    149.09565   -652.38587      133.482     36583.71    1.9018006    33.196777 
  169900    148.20105   -645.97061    135.84744    36839.664    1.8885872    33.274016 
  170000     149.4059   -630.67942    29.152303    37851.754    1.8380897    33.575978 
  170010    151.52805   -633.55878    170.16161    37243.149    1.8681267    33.395053 
Loop time of 30.7411 on 1 procs for 150000 steps with 500 atoms

Performance: 421.586 ns/day, 0.057 hours/ns, 4879.464 timesteps/s
96.7% CPU use with 1 MPI tasks x no OpenMP threads

MPI task timing breakdown:
Section |  min time  |  avg time  |  max time  |%varavg| %total
---------------------------------------------------------------
Pair    | 24.794     | 24.794     | 24.794     |   0.0 | 80.65
Neigh   | 0.62091    | 0.62091    | 0.62091    |   0.0 |  2.02
Comm    | 0.90339    | 0.90339    | 0.90339    |   0.0 |  2.94
Output  | 0.95903    | 0.95903    | 0.95903    |   0.0 |  3.12
Modify  | 3.0638     | 3.0638     | 3.0638     |   0.0 |  9.97
Other   |            | 0.3999     |            |       |  1.30

Nlocal:    500 ave 500 max 500 min
Histogram: 1 0 0 0 0 0 0 0 0 0
Nghost:    1085 ave 1085 max 1085 min
Histogram: 1 0 0 0 0 0 0 0 0 0
Neighs:    6954 ave 6954 max 6954 min
Histogram: 1 0 0 0 0 0 0 0 0 0

Total # of neighbors = 6954
Ave neighs/atom = 13.908
Neighbor list builds = 1227
Dangerous builds = 0
System init for write_data ...
Total wall time: 0:00:35
