LAMMPS (7 Aug 2019)
Reading data file ...
  orthogonal box = (-0.72752 -0.72752 -0.72752) to (28.6275 28.6275 28.6275)
  1 by 1 by 1 MPI processor grid
  reading atoms ...
  500 atoms
  reading velocities ...
  500 velocities
  read_data CPU = 0.00599194 secs
Neighbor list info ...
  update every 1 steps, delay 10 steps, check yes
  max neighbors/atom: 2000, page size: 100000
  master list distance cutoff = 11
  ghost atom cutoff = 11
  binsize = 5.5, bins = 6 6 6
  2 neighbor lists, perpetual/occasional/extra = 1 1 0
  (1) pair lj/cut, perpetual
      attributes: half, newton on
      pair build: half/bin/atomonly/newton
      stencil: half/bin/3d/newton
      bin: standard
  (2) compute rdf, occasional, copy from (1)
      attributes: half, newton on
      pair build: copy
      stencil: none
      bin: none
Setting up Verlet run ...
  Unit style    : real
  Current step  : 0
  Time step     : 1
Per MPI rank memory allocation (min/avg/max) = 4.051 | 4.051 | 4.051 Mbytes
Step Temp PotEng KinEng TotEng 
       0    79.325539   -1112.6239    117.99073   -994.63321 
    1000    80.947455   -1114.8632    120.40321      -994.46 
    2000    77.168267   -1109.3388    114.78195   -994.55687 
    3000     78.92348   -1112.0083     117.3927   -994.61555 
    4000    79.683161   -1113.1115    118.52266   -994.58886 
    5000    83.712223   -1119.0753    124.51559   -994.55973 
    6000    79.116172   -1112.2184    117.67931    -994.5391 
    7000    76.290213   -1108.1148    113.47591   -994.63886 
    8000    80.363213   -1114.2759    119.53419   -994.74169 
    9000     78.21997   -1111.0029    116.34628   -994.65658 
   10000    78.236524   -1111.1129     116.3709     -994.742 
   11000    78.733996   -1111.7883    117.11085   -994.67743 
   12000     81.39258   -1115.6342     121.0653   -994.56889 
   13000    76.827689   -1108.7326    114.27536   -994.45722 
   14000    78.202669   -1110.6985    116.32054   -994.37792 
   15000    82.710248     -1117.33    123.02523   -994.30474 
   16000    77.705769   -1109.9476    115.58144   -994.36616 
   17000    77.100221   -1109.2995    114.68074    -994.6188 
   18000    82.508951   -1117.0892    122.72581   -994.36343 
   19000    79.373596   -1112.7692    118.06221   -994.70698 
   20000    78.482322   -1111.3054    116.73651   -994.56888 
   21000    76.158104   -1107.7895    113.27941   -994.51008 
   22000    81.096727    -1115.012    120.62524   -994.38672 
   23000    80.944809   -1115.0533    120.39927     -994.654 
   24000    80.558328   -1114.2965    119.82441   -994.47206 
   25000     76.35816   -1108.2282    113.57698   -994.65123 
   26000    83.454003   -1118.5624     124.1315   -994.43089 
   27000       77.821   -1110.3482    115.75284   -994.59539 
   28000    82.604253   -1117.0841    122.86757   -994.21652 
   29000    81.487101   -1115.7103    121.20589   -994.50439 
   30000    81.509077   -1115.8457    121.23857   -994.60716 
   31000    82.525409   -1117.1109    122.75029   -994.36066 
   32000    82.764474   -1117.4723    123.10588   -994.36643 
   33000    80.829914   -1114.7183    120.22837   -994.48989 
   34000    79.664843   -1112.9735    118.49542   -994.47808 
   35000    78.055359   -1110.6882    116.10143   -994.58677 
   36000    78.958827   -1112.0586    117.44527   -994.61329 
   37000    83.766093   -1119.0035    124.59572   -994.40774 
   38000    81.430311     -1115.82    121.12142   -994.69854 
   39000    80.576778   -1114.4358    119.85185   -994.58392 
   40000    84.065848   -1119.5228    125.04158   -994.48122 
   41000    79.003283   -1111.9808     117.5114   -994.46939 
   42000    79.254338   -1112.4835    117.88482   -994.59866 
   43000    81.784948   -1116.0068    121.64891   -994.35787 
   44000     81.12617   -1115.2208    120.66903   -994.55177 
   45000    83.657856   -1118.9072    124.43472   -994.47247 
   46000    77.035134      -1109.3    114.58392   -994.71611 
   47000    84.429217   -1120.3158    125.58206   -994.73371 
   48000    79.894166   -1113.4439    118.83652   -994.60738 
   49000    79.322698   -1112.6585     117.9865   -994.67201 
   50000    82.225688   -1116.6916    122.30448   -994.38712 
   51000    82.346903   -1117.0511    122.48478   -994.56631 
   52000    79.916375   -1113.4152    118.86955   -994.54566 
   53000    80.307532   -1113.9325    119.45137   -994.48111 
   54000    86.412221   -1123.2096    128.53163   -994.67794 
   55000    81.425015    -1115.674    121.11354   -994.56049 
   56000    84.220511    -1119.944    125.27163   -994.67241 
   57000    77.233013   -1109.6297    114.87825   -994.75145 
   58000    83.996299   -1119.3078    124.93813   -994.36967 
   59000    82.609352   -1117.2242    122.87515   -994.34906 
   60000    81.592628   -1115.7532    121.36285   -994.39031 
   61000    80.035852   -1113.4639    119.04727   -994.41667 
   62000    85.163175   -1121.0671    126.67377   -994.39334 
   63000    78.073995   -1110.7926    116.12915   -994.66348 
   64000    79.788373   -1113.1489    118.67916   -994.46976 
   65000    79.767339   -1113.0971    118.64787   -994.44924 
   66000    76.652103   -1108.5221    114.01419   -994.50791 
   67000    82.861197    -1117.555    123.24975   -994.30527 
   68000    83.421484   -1118.2327    124.08314   -994.14957 
   69000    81.327586   -1115.4411    120.96862   -994.47252 
   70000    80.422156   -1113.8534    119.62186   -994.23157 
   71000    78.247958   -1110.7898    116.38791   -994.40186 
   72000    80.456136   -1114.2505     119.6724   -994.57809 
   73000    80.301808   -1113.6714    119.44285   -994.22857 
   74000    82.931861   -1117.9388    123.35486   -994.58399 
   75000    84.571756   -1120.1078    125.79408   -994.31372 
   76000    81.879371   -1116.2616    121.78936   -994.47228 
   77000    83.274441    -1118.237    123.86442   -994.37258 
   78000    82.071432   -1116.5064    122.07503   -994.43138 
   79000    86.943672   -1123.6156    129.32212   -994.29345 
   80000    79.334383    -1112.359    118.00388    -994.3551 
   81000     82.47132   -1116.9723    122.66984    -994.3025 
   82000    83.813091   -1119.1825    124.66562    -994.5169 
   83000    82.785667   -1117.6571    123.13741   -994.51967 
   84000    83.333986   -1118.2112    123.95299    -994.2582 
   85000    88.118674    -1125.419    131.06985   -994.34916 
   86000    86.093708   -1122.3923    128.05787   -994.33448 
   87000    84.856295   -1120.5635    126.21731   -994.34618 
   88000    85.225279   -1121.1447    126.76614   -994.37851 
   89000    83.638434   -1118.7109    124.40583   -994.30506 
   90000    87.143437   -1124.0243    129.61926   -994.40508 
   91000    83.948819   -1119.2432    124.86751   -994.37573 
   92000    85.688825   -1121.6551    127.45563   -994.19943 
   93000    81.879072   -1115.8825    121.78892   -994.09358 
   94000    88.812391   -1126.4128     132.1017   -994.31108 
   95000    82.262624   -1116.6967    122.35942   -994.33729 
   96000    86.016092   -1122.1798    127.94242   -994.23738 
   97000    84.112101    -1119.377    125.11038   -994.26664 
   98000    86.014665    -1122.169     127.9403   -994.22869 
   99000    82.867488   -1117.6698    123.25911   -994.41069 
  100000    89.065938   -1126.7397    132.47883   -994.26082 
Loop time of 99.5244 on 1 procs for 100000 steps with 500 atoms

Performance: 86.813 ns/day, 0.276 hours/ns, 1004.779 timesteps/s
95.8% CPU use with 1 MPI tasks x no OpenMP threads

MPI task timing breakdown:
Section |  min time  |  avg time  |  max time  |%varavg| %total
---------------------------------------------------------------
Pair    | 39.783     | 39.783     | 39.783     |   0.0 | 39.97
Neigh   | 0.71482    | 0.71482    | 0.71482    |   0.0 |  0.72
Comm    | 1.2371     | 1.2371     | 1.2371     |   0.0 |  1.24
Output  | 0.022321   | 0.022321   | 0.022321   |   0.0 |  0.02
Modify  | 57.341     | 57.341     | 57.341     |   0.0 | 57.61
Other   |            | 0.4264     |            |       |  0.43

Nlocal:    500 ave 500 max 500 min
Histogram: 1 0 0 0 0 0 0 0 0 0
Nghost:    2194 ave 2194 max 2194 min
Histogram: 1 0 0 0 0 0 0 0 0 0
Neighs:    27796 ave 27796 max 27796 min
Histogram: 1 0 0 0 0 0 0 0 0 0

Total # of neighbors = 27796
Ave neighs/atom = 55.592
Neighbor list builds = 683
Dangerous builds = 0
Total wall time: 0:01:39
