LAMMPS (7 Aug 2019)
Reading data file ...
  orthogonal box = (-0.3878 -0.3878 -0.3878) to (28.2878 28.2878 28.2878)
  1 by 1 by 1 MPI processor grid
  reading atoms ...
  500 atoms
  reading velocities ...
  500 velocities
  read_data CPU = 0.00773501 secs
Neighbor list info ...
  update every 1 steps, delay 10 steps, check yes
  max neighbors/atom: 2000, page size: 100000
  master list distance cutoff = 11
  ghost atom cutoff = 11
  binsize = 5.5, bins = 6 6 6
  2 neighbor lists, perpetual/occasional/extra = 1 1 0
  (1) pair lj/cut, perpetual
      attributes: half, newton on
      pair build: half/bin/atomonly/newton
      stencil: half/bin/3d/newton
      bin: standard
  (2) compute rdf, occasional, copy from (1)
      attributes: half, newton on
      pair build: copy
      stencil: none
      bin: none
Setting up Verlet run ...
  Unit style    : real
  Current step  : 0
  Time step     : 1
Per MPI rank memory allocation (min/avg/max) = 4.041 | 4.041 | 4.041 Mbytes
Step Temp PotEng KinEng TotEng 
       0    79.501984   -1241.2143    118.25318   -1122.9612 
    1000    77.255944   -1237.9235    114.91236   -1123.0112 
    2000    74.294582    -1233.504    110.50756   -1122.9965 
    3000    77.628116    -1238.539    115.46594    -1123.073 
    4000    80.392568   -1242.6625    119.57785   -1123.0847 
    5000    79.206745   -1240.9546    117.81403   -1123.1406 
    6000     78.66641   -1240.1039    117.01032   -1123.0936 
    7000    80.540927   -1242.8862    119.79852   -1123.0877 
    8000    78.136141   -1239.3268    116.22159   -1123.1052 
    9000    79.669409   -1241.4724    118.50221   -1122.9702 
   10000    75.032856   -1234.5903    111.60569   -1122.9846 
   11000    76.842507   -1237.2674    114.29741     -1122.97 
   12000    78.099145   -1239.1838    116.16656   -1123.0172 
   13000    79.150861   -1240.7246    117.73091   -1122.9937 
   14000    81.012575    -1243.526    120.50007   -1123.0259 
   15000    82.754222   -1246.1812    123.09063   -1123.0905 
   16000    77.904885   -1238.9681    115.87761   -1123.0904 
   17000    78.267836   -1239.4756    116.41747   -1123.0581 
   18000    83.396784   -1247.0282     124.0464   -1122.9818 
   19000      77.4901   -1238.4481    115.26065   -1123.1874 
   20000     78.14779   -1239.4733    116.23891   -1123.2344 
   21000    76.221771   -1236.4206    113.37411   -1123.0465 
   22000    81.222221   -1243.8849     120.8119    -1123.073 
   23000    79.677955   -1241.5851    118.51492   -1123.0702 
   24000    75.136296   -1234.7767    111.75955   -1123.0172 
   25000    79.107626    -1240.675     117.6666   -1123.0084 
   26000    81.879143   -1244.8679    121.78902   -1123.0789 
   27000    78.279885   -1239.4995     116.4354   -1123.0641 
   28000    75.848034   -1235.8794     112.8182   -1123.0612 
   29000    78.722216   -1240.1369    117.09333   -1123.0436 
   30000    78.077849   -1239.1579    116.13488    -1123.023 
   31000    79.303213   -1240.9952    117.95752   -1123.0377 
   32000    76.877569   -1237.4049    114.34956   -1123.0554 
   33000    78.160061   -1239.2449    116.25717   -1122.9877 
   34000    77.398692   -1238.2035    115.12469   -1123.0788 
   35000    80.468621   -1242.7257    119.69098   -1123.0347 
   36000    79.161402   -1240.7518    117.74659   -1123.0052 
   37000    79.079477   -1240.7211    117.62473   -1123.0964 
   38000    78.418781   -1239.6617    116.64199   -1123.0197 
   39000    79.722237   -1241.5713    118.58079   -1122.9905 
   40000    78.985111   -1240.6158    117.48437   -1123.1315 
   41000    78.112182   -1239.2763    116.18595   -1123.0904 
   42000    77.690695   -1238.5819    115.55902   -1123.0229 
   43000    78.831213   -1240.3635    117.25545    -1123.108 
   44000    80.744981   -1243.0661    120.10204    -1122.964 
   45000    78.433461   -1239.6131    116.66383   -1122.9493 
   46000    79.715477   -1241.6051    118.57073   -1123.0344 
   47000    77.061403   -1237.6721      114.623   -1123.0491 
   48000    75.882811   -1235.8691    112.86993   -1122.9991 
   49000    81.096426    -1243.618    120.62479   -1122.9932 
   50000     78.84206   -1240.3088    117.27159   -1123.0372 
   51000    82.780748   -1246.1702    123.13009   -1123.0402 
   52000     77.07105   -1237.6686    114.63735   -1123.0312 
   53000    78.929904   -1240.4483    117.40225   -1123.0461 
   54000    75.191573   -1234.8876    111.84177   -1123.0459 
   55000    76.008507   -1236.1173    113.05689   -1123.0604 
   56000    78.521696    -1239.835    116.79507     -1123.04 
   57000    77.676754   -1238.6399    115.53828   -1123.1017 
   58000    76.723544   -1237.0957    114.12046   -1122.9753 
   59000    79.673437   -1241.6216     118.5082   -1123.1134 
   60000    80.272672   -1242.3425    119.39952    -1122.943 
   61000    81.242736   -1243.8736    120.84241   -1123.0312 
   62000    79.163117   -1240.7921    117.74914   -1123.0429 
   63000    79.138145   -1240.7197    117.71199   -1123.0077 
   64000    79.055614   -1240.6585    117.58924   -1123.0693 
   65000    78.219872   -1239.3861    116.34613     -1123.04 
   66000    77.824667   -1238.8012    115.75829   -1123.0429 
   67000    78.077573    -1239.245    116.13447   -1123.1105 
   68000    73.399245   -1232.2745    109.17581   -1123.0987 
   69000    76.700519   -1237.2144    114.08621   -1123.1282 
   70000    79.865978    -1241.826    118.79459   -1123.0314 
   71000    86.188192   -1251.2621     128.1984   -1123.0637 
   72000    80.421861   -1242.5501    119.62142   -1122.9286 
   73000    82.963082   -1246.4033     123.4013    -1123.002 
   74000    83.040332   -1246.5299     123.5162   -1123.0137 
   75000    82.888278   -1246.3155    123.29003   -1123.0254 
   76000    82.750082   -1246.0101    123.08448   -1122.9257 
   77000    78.701359   -1240.0378    117.06231   -1122.9755 
   78000     84.90075   -1249.3032    126.28343   -1123.0197 
   79000    80.796901   -1243.1166    120.17927   -1122.9373 
   80000    80.836396   -1243.2018    120.23801   -1122.9638 
   81000    76.003669   -1236.1337     113.0497    -1123.084 
   82000    82.851558    -1246.167    123.23541   -1122.9316 
   83000    82.353638   -1245.5233     122.4948   -1123.0285 
   84000    81.987977   -1244.8471     121.9509   -1122.8962 
   85000    82.074885    -1245.088    122.08017   -1123.0078 
   86000    79.931454   -1241.8468    118.89198   -1122.9548 
   87000    80.247069   -1242.3105    119.36143   -1122.9491 
   88000    79.532051   -1241.2705     118.2979   -1122.9726 
   89000    83.062093   -1246.4831    123.54857   -1122.9345 
   90000    80.615123   -1243.0342    119.90889   -1123.1253 
   91000    80.987478   -1243.4002    120.46274   -1122.9375 
   92000    81.415364   -1244.0837    121.09918   -1122.9846 
   93000    83.851162   -1247.6833    124.72225   -1122.9611 
   94000    81.158673   -1243.7108    120.71738   -1122.9934 
   95000    82.392108   -1245.4749    122.55202   -1122.9229 
   96000    80.967377   -1243.4233    120.43284   -1122.9905 
   97000    85.467096   -1250.0311    127.12583   -1122.9053 
   98000    82.711547   -1245.9295    123.02716   -1122.9023 
   99000    82.426651   -1245.4765     122.6034   -1122.8731 
  100000    81.874157   -1244.7662     121.7816   -1122.9846 
Loop time of 118.424 on 1 procs for 100000 steps with 500 atoms

Performance: 72.958 ns/day, 0.329 hours/ns, 844.422 timesteps/s
95.8% CPU use with 1 MPI tasks x no OpenMP threads

MPI task timing breakdown:
Section |  min time  |  avg time  |  max time  |%varavg| %total
---------------------------------------------------------------
Pair    | 47.965     | 47.965     | 47.965     |   0.0 | 40.50
Neigh   | 0.72271    | 0.72271    | 0.72271    |   0.0 |  0.61
Comm    | 1.2044     | 1.2044     | 1.2044     |   0.0 |  1.02
Output  | 0.013625   | 0.013625   | 0.013625   |   0.0 |  0.01
Modify  | 68.062     | 68.062     | 68.062     |   0.0 | 57.47
Other   |            | 0.4568     |            |       |  0.39

Nlocal:    500 ave 500 max 500 min
Histogram: 1 0 0 0 0 0 0 0 0 0
Nghost:    1982 ave 1982 max 1982 min
Histogram: 1 0 0 0 0 0 0 0 0 0
Neighs:    31309 ave 31309 max 31309 min
Histogram: 1 0 0 0 0 0 0 0 0 0

Total # of neighbors = 31309
Ave neighs/atom = 62.618
Neighbor list builds = 679
Dangerous builds = 0
Total wall time: 0:01:58
