LAMMPS (7 Aug 2019)
Reading data file ...
  orthogonal box = (-36.2239 -36.2239 -36.2239) to (64.1239 64.1239 64.1239)
  1 by 1 by 1 MPI processor grid
  reading atoms ...
  500 atoms
  reading velocities ...
  500 velocities
  read_data CPU = 0.00782704 secs
Neighbor list info ...
  update every 1 steps, delay 10 steps, check yes
  max neighbors/atom: 2000, page size: 100000
  master list distance cutoff = 11
  ghost atom cutoff = 11
  binsize = 5.5, bins = 19 19 19
  2 neighbor lists, perpetual/occasional/extra = 1 1 0
  (1) pair lj/cut, perpetual
      attributes: half, newton on
      pair build: half/bin/atomonly/newton
      stencil: half/bin/3d/newton
      bin: standard
  (2) compute rdf, occasional, copy from (1)
      attributes: half, newton on
      pair build: copy
      stencil: none
      bin: none
Setting up Verlet run ...
  Unit style    : real
  Current step  : 0
  Time step     : 1
Per MPI rank memory allocation (min/avg/max) = 4.021 | 4.021 | 4.021 Mbytes
Step Temp PotEng KinEng TotEng 
       0    515.71975   -23.301604    767.09404    743.79244 
    1000    513.78982   -20.378134    764.22342    743.84529 
    2000    513.03029   -19.254144    763.09367    743.83953 
    3000    515.97707   -23.766633    767.47679    743.71016 
    4000    513.01831   -19.386264    763.07586     743.6896 
    5000    515.35824   -22.872794    766.55633    743.68353 
    6000    513.72845   -20.410317    764.13214    743.72183 
    7000    516.67677   -24.739959    768.51754    743.77758 
    8000    513.59717   -20.097593    763.93686    743.83927 
    9000    509.59809   -14.263803    757.98854    743.72474 
   10000    517.79723   -26.509445    770.18413    743.67469 
   11000    517.09059   -25.411335    769.13306    743.72172 
   12000    513.89875    -20.58734    764.38545    743.79811 
   13000    514.37144   -21.375535    765.08853      743.713 
   14000    515.13383   -22.568336    766.22253    743.65419 
   15000    513.75861   -20.531666    764.17699    743.64533 
   16000    515.56476   -23.182924     766.8635    743.68058 
   17000    513.81641   -20.558796    764.26297    743.70417 
   18000    517.59053   -26.222574    769.87669    743.65411 
   19000    517.79308   -26.559028    770.17796    743.61893 
   20000     515.0007   -22.467394     766.0245    743.55711 
   21000    516.02515   -23.891504     767.5483     743.6568 
   22000    515.76211   -23.435545    767.15706    743.72151 
   23000    516.37374   -24.445135     768.0668    743.62167 
   24000    516.17924   -24.111778     767.7775    743.66573 
   25000    512.69241   -18.943129    762.59111    743.64798 
   26000    514.13484   -20.973999    764.73661    743.76261 
   27000    512.82595   -19.038754    762.78974    743.75098 
   28000    513.30552   -19.731764    763.50306     743.7713 
   29000    513.13953   -19.481789    763.25616    743.77437 
   30000    515.12049   -22.536944    766.20269    743.66575 
   31000    515.17843   -22.673181    766.28888     743.6157 
   32000    514.16929   -21.075173    764.78786    743.71268 
   33000    512.87811   -19.116583    762.86732    743.75074 
   34000    514.70883   -21.895361    765.59037    743.69501 
   35000    512.64609   -18.783154    762.52221    743.73906 
   36000    512.15498    -18.04101    761.79172    743.75071 
   37000    513.17872   -19.528486    763.31445    743.78597 
   38000     510.5473   -15.705469    759.40042    743.69495 
   39000    514.04787   -20.927105    764.60725    743.68014 
   40000    513.60139    -20.24532    763.94314    743.69782 
   41000    514.59385    -21.70399    765.41935    743.71536 
   42000    513.80867   -20.530371    764.25146    743.72109 
   43000    512.92817   -19.308545    762.94178    743.63323 
   44000    515.27128   -22.761438    766.42698    743.66555 
   45000    513.27606   -19.720244    763.45924      743.739 
   46000    513.36162   -19.821102     763.5865     743.7654 
   47000    510.87198    -16.18556    759.88336     743.6978 
   48000    511.66021   -17.363906    761.05579    743.69189 
   49000    511.53766   -17.069942     760.8735    743.80355 
   50000     513.7053   -20.311852     764.0977    743.78584 
   51000    512.15185   -17.986586    761.78707    743.80048 
   52000    514.52049   -21.524413    765.31024    743.78582 
   53000    516.57303   -24.686165    768.36323    743.67707 
   54000    516.43594   -24.491049    768.15932    743.66827 
   55000    513.96735   -20.816191    764.48748    743.67129 
   56000    516.55519   -24.618615    768.33669    743.71808 
   57000     513.6945   -20.237316    764.08164    743.84433 
   58000    513.30948   -19.726282    763.50895    743.78267 
   59000    515.29177   -22.739388    766.45746    743.71807 
   60000    514.13209   -20.964592    764.73252    743.76793 
   61000    514.41367   -21.421672    765.15135    743.72968 
   62000    508.06929   -11.946391    755.71457    743.76818 
   63000    514.32566   -21.311246    765.02045     743.7092 
   64000    514.95231   -22.293237    765.95253    743.65929 
   65000    512.37739    -18.51026    762.12254    743.61228 
   66000    514.80356   -22.057408    765.73128    743.67387 
   67000    513.44616   -20.062036    763.71225    743.65022 
   68000    517.02417   -25.472159    769.03426     743.5621 
   69000    519.44909   -29.011364    772.64115    743.62979 
   70000    512.46633   -18.554436    762.25483    743.70039 
   71000    517.22648   -25.611562    769.33519    743.72363 
   72000    515.57173    -23.19141    766.87388    743.68247 
   73000     514.6788   -21.930828    765.54572    743.61489 
   74000    516.88626   -25.120323    768.82915    743.70882 
   75000    516.18857   -24.138359    767.79139    743.65303 
   76000    516.70842   -24.908723    768.56462     743.6559 
   77000    513.43962   -19.979172    763.70253    743.72336 
   78000     515.0024    -22.24493    766.02704    743.78211 
   79000    514.67215   -21.739134    765.53582    743.79669 
   80000    518.78239   -27.896842    771.64949    743.75265 
   81000    515.31059   -22.753292    766.48544    743.73215 
   82000    515.30432   -22.735324    766.47613     743.7408 
   83000    515.91156   -23.603415    767.37934    743.77593 
   84000    515.40575   -22.877275      766.627    743.74972 
   85000    515.78327    -23.34778    767.18853    743.84075 
   86000    512.62055   -18.710872    762.48423    743.77335 
   87000    514.56613   -21.692908    765.37812    743.68522 
   88000     516.8339   -25.066018    768.75125    743.68524 
   89000    512.39566   -18.420384    762.14971    743.72933 
   90000    513.46149   -19.944009    763.73506    743.79105 
   91000    515.46783   -22.946132    766.71933     743.7732 
   92000    515.48379   -23.066712    766.74307    743.67636 
   93000    514.19901   -21.091143    764.83205    743.74091 
   94000    514.13907   -20.996066    764.74291    743.74684 
   95000    509.95347    -14.75261    758.51714    743.76453 
   96000    513.47013   -19.983547     763.7479    743.76436 
   97000    514.97965   -22.246327     765.9932    743.74687 
   98000    515.09002   -22.381081    766.15737    743.77629 
   99000    515.22095   -22.587737    766.35212    743.76438 
  100000    512.77303   -18.970213    762.71102    743.74081 
Loop time of 4.88428 on 1 procs for 100000 steps with 500 atoms

Performance: 1768.942 ns/day, 0.014 hours/ns, 20473.864 timesteps/s
97.8% CPU use with 1 MPI tasks x no OpenMP threads

MPI task timing breakdown:
Section |  min time  |  avg time  |  max time  |%varavg| %total
---------------------------------------------------------------
Pair    | 1.1139     | 1.1139     | 1.1139     |   0.0 | 22.81
Neigh   | 0.21024    | 0.21024    | 0.21024    |   0.0 |  4.30
Comm    | 0.25044    | 0.25044    | 0.25044    |   0.0 |  5.13
Output  | 0.013287   | 0.013287   | 0.013287   |   0.0 |  0.27
Modify  | 3.0918     | 3.0918     | 3.0918     |   0.0 | 63.30
Other   |            | 0.2046     |            |       |  4.19

Nlocal:    500 ave 500 max 500 min
Histogram: 1 0 0 0 0 0 0 0 0 0
Nghost:    400 ave 400 max 400 min
Histogram: 1 0 0 0 0 0 0 0 0 0
Neighs:    705 ave 705 max 705 min
Histogram: 1 0 0 0 0 0 0 0 0 0

Total # of neighbors = 705
Ave neighs/atom = 1.41
Neighbor list builds = 1744
Dangerous builds = 0
Total wall time: 0:00:04
