LAMMPS (7 Aug 2019)
Lattice spacing in x,y,z = 5.58 5.58 5.58
Created orthogonal box = (0 0 0) to (27.9 27.9 27.9)
  1 by 1 by 1 MPI processor grid
Created 500 atoms
  create_atoms CPU = 0.000895023 secs
WARNING: Using 'neigh_modify every 1 delay 0 check yes' setting during minimization (../min.cpp:168)
Neighbor list info ...
  update every 1 steps, delay 0 steps, check yes
  max neighbors/atom: 2000, page size: 100000
  master list distance cutoff = 11
  ghost atom cutoff = 11
  binsize = 5.5, bins = 6 6 6
  1 neighbor lists, perpetual/occasional/extra = 1 0 0
  (1) pair lj/cut, perpetual
      attributes: half, newton on
      pair build: half/bin/atomonly/newton
      stencil: half/bin/3d/newton
      bin: standard
Setting up cg style minimization ...
  Unit style    : real
  Current step  : 0
WARNING: Energy due to 1 extra global DOFs will be included in minimizer energies
Per MPI rank memory allocation (min/avg/max) = 5.538 | 5.538 | 5.538 Mbytes
Step Temp PotEng Press Volume Density Lx 
       0            0   -1396.6848   -328.81741    21717.639    3.2036134         27.9 
      34            0    -1397.189 -1.3991029e-11    21510.378    3.2344815    27.810962 
Loop time of 0.0242651 on 1 procs for 34 steps with 500 atoms

98.3% CPU use with 1 MPI tasks x no OpenMP threads

Minimization stats:
  Stopping criterion = force tolerance
  Energy initial, next-to-last, final = 
        -1396.68483667     -1397.18899821     -1397.18899821
  Force two-norm initial, final = 312.439 1.33884e-11
  Force max component initial, final = 312.439 1.32094e-11
  Final line search alpha, max atom move = 1 1.32094e-11
  Iterations, force evaluations = 34 37

MPI task timing breakdown:
Section |  min time  |  avg time  |  max time  |%varavg| %total
---------------------------------------------------------------
Pair    | 0.021466   | 0.021466   | 0.021466   |   0.0 | 88.46
Neigh   | 0          | 0          | 0          |   0.0 |  0.00
Comm    | 0.00036597 | 0.00036597 | 0.00036597 |   0.0 |  1.51
Output  | 0          | 0          | 0          |   0.0 |  0.00
Modify  | 0          | 0          | 0          |   0.0 |  0.00
Other   |            | 0.002434   |            |       | 10.03

Nlocal:    500 ave 500 max 500 min
Histogram: 1 0 0 0 0 0 0 0 0 0
Nghost:    1956 ave 1956 max 1956 min
Histogram: 1 0 0 0 0 0 0 0 0 0
Neighs:    33500 ave 33500 max 33500 min
Histogram: 1 0 0 0 0 0 0 0 0 0

Total # of neighbors = 33500
Ave neighs/atom = 67
Neighbor list builds = 0
Dangerous builds = 0
Setting up Verlet run ...
  Unit style    : real
  Current step  : 34
  Time step     : 1
Per MPI rank memory allocation (min/avg/max) = 4.413 | 4.413 | 4.413 Mbytes
Step Temp PotEng Press Volume Density Lx 
      34            0    -1397.189 -1.4085404e-11    21510.378    3.2344815    27.810962 
    1000 1.4970395e-22    -1397.189 8.2216079e-11    21510.378    3.2344815    27.810962 
    2000 9.0253632e-21    -1397.189 2.7445504e-10    21510.378    3.2344815    27.810962 
    3000 7.9205468e-19    -1397.189 2.6099446e-10    21510.378    3.2344815    27.810962 
    4000 2.2089843e-16    -1397.189 1.1614959e-09    21510.378    3.2344815    27.810962 
    5000 3.3898849e-14    -1397.189 3.4323332e-10    21510.378    3.2344815    27.810962 
    6000 1.109253e-10    -1397.189 -4.9743721e-09    21510.378    3.2344815    27.810962 
    7000 1.8622478e-06    -1397.189 1.9112282e-08    21510.378    3.2344815    27.810962 
    8000  0.047886932   -1397.1796 0.00048979758    21510.554    3.2344551    27.811038 
    9000   0.92154963   -1393.4787 -0.0079809031    21545.709    3.2291775    27.826181 
   10000    1.2613637   -1388.4426 -0.0096166483    21594.075    3.2219449    27.846986 
   11000   0.98124483   -1396.5468   -0.1241948     21518.28    3.2332938    27.814367 
   12000   0.92570148   -1394.8929 -0.050069162    21533.364    3.2310289    27.820865 
   13000     1.118171   -1391.2312   0.26570241    21567.662    3.2258906    27.835628 
   14000   0.96166594    -1396.941   0.40580184    21514.362    3.2338825    27.812679 
   15000   0.88694398   -1393.8103  -0.55923402     21543.51    3.2295072    27.825234 
   16000    1.2047307   -1394.2827   -1.4631656    21540.844    3.2299069    27.824086 
   17000    1.0055276   -1396.5496   0.36690176    21518.141    3.2333147    27.814307 
   18000    1.2800576   -1392.5587     4.066251    21553.762    3.2279711    27.829647 
   19000   0.93562645   -1396.8025    1.7370337    21514.894    3.2338026    27.812908 
   20000   0.98571608   -1394.2814   -9.9054833    21545.391    3.2292252    27.826044 
   20034    1.0064723   -1394.1402   -9.8745055    21546.763    3.2290196    27.826634 
Loop time of 10.9029 on 1 procs for 20000 steps with 500 atoms

Performance: 158.491 ns/day, 0.151 hours/ns, 1834.382 timesteps/s
93.0% CPU use with 1 MPI tasks x no OpenMP threads

MPI task timing breakdown:
Section |  min time  |  avg time  |  max time  |%varavg| %total
---------------------------------------------------------------
Pair    | 9.4601     | 9.4601     | 9.4601     |   0.0 | 86.77
Neigh   | 0          | 0          | 0          |   0.0 |  0.00
Comm    | 0.23281    | 0.23281    | 0.23281    |   0.0 |  2.14
Output  | 0.0044839  | 0.0044839  | 0.0044839  |   0.0 |  0.04
Modify  | 1.1265     | 1.1265     | 1.1265     |   0.0 | 10.33
Other   |            | 0.07896    |            |       |  0.72

Nlocal:    500 ave 500 max 500 min
Histogram: 1 0 0 0 0 0 0 0 0 0
Nghost:    1956 ave 1956 max 1956 min
Histogram: 1 0 0 0 0 0 0 0 0 0
Neighs:    33500 ave 33500 max 33500 min
Histogram: 1 0 0 0 0 0 0 0 0 0

Total # of neighbors = 33500
Ave neighs/atom = 67
Neighbor list builds = 0
Dangerous builds = 0
Setting up Verlet run ...
  Unit style    : real
  Current step  : 20034
  Time step     : 1
Per MPI rank memory allocation (min/avg/max) = 4.413 | 4.413 | 4.413 Mbytes
Step Temp PotEng Press Volume Density Lx 
   20034    1.0064723   -1394.1402   -9.8745055    21546.763    3.2290196    27.826634 
   21000     49.28954   -1374.9642    37.208783    21804.677    3.1908255    27.937222 
   22000    80.879102   -1167.0529    32.433059     24567.01    2.8320467    29.070384 
   23000    82.331669   -1094.0117    106.84619     25654.18    2.7120306    29.493029 
   24000    78.975634   -1090.1702   -179.88634    26033.367    2.6725287    29.637628 
   25000    79.858008   -1098.2911   -99.391217    25751.619    2.7017688    29.530322 
   26000    81.967403   -1114.4837    49.856886    25342.297     2.745407    29.373024 
   27000    84.474585   -1130.2436    153.18768    24944.219    2.7892202    29.218414 
   28000    76.677257   -1125.2467    21.454401    25141.402    2.7673445    29.295202 
   29000    81.842742   -1132.1744   -23.911375    25064.898    2.7757911    29.265457 
   30000     78.33546   -1139.4484   -69.838082    25034.266    2.7791876     29.25353 
   31000    78.047342   -1126.1602   -122.18355    25264.602    2.7538499    29.342976 
   32000    79.470208   -1135.1708   -32.368108    25030.715    2.7795818    29.252147 
   33000     81.26749   -1139.9869    56.249074    24871.603    2.7973638    29.190033 
   34000    84.284213   -1148.8359    253.42466    24573.769    2.8312677     29.07305 
   35000     82.55623   -1155.9262    26.610198    24675.709    2.8195713    29.113196 
   36000    73.726633    -1176.873    13.278927    24350.897     2.857181     28.98489 
   37000    77.083122   -1177.5448   -95.666066    24459.371    2.8445098    29.027865 
   38000    82.324007   -1190.4825   -72.858318    24243.158    2.8698786     28.94208 
   39000    78.188276   -1203.2442    121.02724    23901.995    2.9108415    28.805675 
   40000    81.178608   -1221.8707     58.63282    23699.651    2.9356939    28.724159 
   41000    80.871708   -1231.5881   -49.869946    23662.902    2.9402531    28.709304 
   42000    80.780942   -1222.6148   -279.34932    23967.398    2.9028983    28.831924 
   43000    78.605872   -1233.0949   -154.66602    23729.892    2.9319527    28.736371 
   44000     80.46847   -1245.8942   -16.124518    23435.448    2.9687899    28.617021 
   45000    74.239608   -1238.0712   -29.319216    23541.277    2.9554438    28.660032 
   46000    77.516067   -1238.5555   -96.039413    23578.295    2.9508038    28.675046 
   47000    80.523458   -1240.3715   -29.251834    23510.608     2.959299    28.647581 
   48000    78.179148   -1243.8958    13.866109    23433.519    2.9690342    28.616236 
   49000    81.677856    -1240.543   -74.306597    23543.264    2.9551943    28.660838 
   50000     80.28625   -1239.0956   -8.2871341    23513.399    2.9589479    28.648714 
   51000    76.337854   -1235.8323    50.892179    23499.533    2.9606937    28.643082 
   52000    80.421841   -1249.5043    124.54421    23276.412    2.9890741    28.552141 
   53000     77.05082   -1241.3561    65.793138    23410.709     2.971927    28.606948 
   54000     82.98098   -1248.5513    -82.53324    23443.585    2.9677594    28.620332 
   55000    80.926705    -1235.194   -21.218867    23567.915    2.9521033    28.670838 
   56000    83.598855   -1238.7819   -108.46746    23603.543    2.9476474    28.685278 
   57000    81.191694   -1237.3064   -112.22573    23628.238    2.9445665    28.695279 
   58000    81.225997   -1237.8068   -79.657352    23588.525     2.949524    28.679193 
   59000    80.588413   -1231.9192   -28.728441    23636.598    2.9435252    28.698662 
   60000     81.11829   -1250.9652   -20.638632    23378.103    2.9760721    28.593661 
   61000     79.41903   -1231.5089    165.95781    23480.764    2.9630603    28.635454 
   62000    79.065172    -1252.329    34.318183    23304.951    2.9854137    28.563805 
   63000    85.530524   -1243.3102   -3.7809868     23465.01    2.9650497    28.629048 
   64000    78.761618   -1240.8071   -27.811826    23497.834    2.9609079    28.642391 
   65000    75.715235   -1236.6724   -202.14391    23701.823    2.9354249    28.725036 
   66000    77.476463   -1236.7397    76.400487    23478.617    2.9633313    28.634581 
   67000    79.440997   -1236.6275    2.8185937    23536.126    2.9560906    28.657941 
   68000     80.85782   -1244.1729   -89.419423    23516.555    2.9585507    28.649996 
   69000    79.349654    -1239.855   -279.83567    23717.379    2.9334996    28.731319 
   70000     80.77753   -1241.2808   -213.62785    23656.994    2.9409874    28.706915 
   71000     78.91137   -1238.0944   -29.626653    23542.346    2.9553096    28.660466 
   72000    75.215641   -1250.4661   -111.14371    23442.692    2.9678725    28.619969 
   73000    76.522186   -1242.8219     60.64975    23403.353    2.9728613    28.603951 
   74000    81.050377   -1244.3992    47.043067    23400.976    2.9731631    28.602983 
   75000     74.45217   -1245.9541   -112.98064    23488.639    2.9620669    28.638655 
   76000    76.469224   -1244.6187   -188.24532    23579.197    2.9506908    28.675412 
   77000    82.202251   -1242.9357   -35.571667    23487.051    2.9622672     28.63801 
   78000    81.880504   -1244.0543   -84.647573    23517.168    2.9584736    28.650245 
   79000    78.649915   -1242.3715   -64.360202     23519.27    2.9582092    28.651099 
   80000    79.135055   -1251.4626    140.60982    23239.824      2.99378    28.537173 
   81000     78.86202   -1241.2123    112.52298    23395.042    2.9739173    28.600565 
   82000    80.819047   -1243.7771    236.68083     23256.77    2.9915986    28.544107 
   83000    79.892978   -1243.5632    88.569754    23375.347    2.9764229    28.592537 
   84000    80.827265   -1242.6354    43.205705    23420.326    2.9707068    28.610864 
   85000    80.862591   -1248.2767   -115.78218    23489.846    2.9619147    28.639145 
   86000    79.051449   -1243.8042    89.166234    23376.118    2.9763248    28.592851 
   87000    84.702209   -1244.6785     177.5942    23310.045    2.9847612    28.565887 
   88000    77.955944   -1238.6201    24.011425    23487.004    2.9622732     28.63799 
   89000    86.187237   -1237.4497   -159.48399    23671.645    2.9391672     28.71284 
   90000    75.940183   -1240.6393   -99.255635    23558.547    2.9532773    28.667039 
   91000    81.517216   -1243.1608    44.734462    23408.287    2.9722346    28.605961 
   92000    81.525003   -1238.3003    8.3450004    23518.565    2.9582978    28.650812 
   93000    80.065968   -1234.3385    54.457772    23530.653    2.9567781     28.65572 
   94000    82.990846   -1254.7002     107.3923    23229.547    2.9951045    28.532966 
   95000    74.297869   -1239.3284    211.84795    23323.295    2.9830657    28.571298 
   96000     80.79642   -1244.3498    145.30282    23321.352    2.9833142    28.570504 
   97000    77.321601   -1238.4346    8.8335545    23494.808    2.9612892    28.641162 
   98000    80.515327   -1242.9146    16.548762    23434.375    2.9689257    28.616584 
   99000    77.094895   -1251.7131    83.704808    23278.346    2.9888257    28.552932 
  100000     79.69046   -1239.7559   -123.00193    23604.849    2.9474842    28.685807 
  101000    75.569309    -1250.001    117.22445    23265.234    2.9905103     28.54757 
  102000    82.270477   -1241.5432   -12.623199    23494.108    2.9613774    28.640877 
  103000    75.066329   -1246.5145   -224.80042    23574.751    2.9512473     28.67361 
  104000    79.857293   -1250.9286   -153.67615    23476.866    2.9635523     28.63387 
  105000    79.028331   -1238.5531   -121.93477    23610.273    2.9468071    28.688004 
  106000    76.199378   -1241.4627    83.401808     23405.65    2.9725694    28.604887 
  107000    81.441131   -1233.4941   -7.4254957    23598.384    2.9482917    28.683188 
  108000    79.930174     -1245.48   -108.39679    23512.702    2.9590356    28.648431 
  109000    77.922147   -1241.8698     144.8332     23366.12    2.9775983    28.588774 
  110000    87.566463   -1233.2268    28.379865    23578.275    2.9508063    28.675038 
  111000    83.730882   -1252.0951   -62.658338    23397.674    2.9735828    28.601637 
  112000    77.710903   -1234.8785   -74.146069    23621.918    2.9453544     28.69272 
  113000    78.710972   -1244.7149    24.637719     23415.52    2.9713164    28.608907 
  114000    75.274664    -1239.658    202.86423    23325.649    2.9827646    28.572259 
  115000     80.31033   -1246.2324    164.54017    23278.577    2.9887961    28.553026 
  116000    80.683908   -1248.1477    8.8893187    23386.747    2.9749721    28.597184 
  117000    86.637076   -1230.7669   -138.72439    23749.426    2.9295412    28.744254 
  118000    74.316131   -1247.9683    19.301916    23363.286    2.9779596    28.587618 
  119000    78.615183   -1245.2801   -100.32413     23500.07    2.9606261      28.6433 
  120000    80.713788   -1241.7514   -114.84411    23558.109    2.9533322    28.666861 
  120034    79.501984   -1241.2143   -139.16881    23579.658    2.9506332    28.675599 
Loop time of 53.681 on 1 procs for 100000 steps with 500 atoms

Performance: 160.951 ns/day, 0.149 hours/ns, 1862.855 timesteps/s
94.1% CPU use with 1 MPI tasks x no OpenMP threads

MPI task timing breakdown:
Section |  min time  |  avg time  |  max time  |%varavg| %total
---------------------------------------------------------------
Pair    | 48.849     | 48.849     | 48.849     |   0.0 | 91.00
Neigh   | 0.91528    | 0.91528    | 0.91528    |   0.0 |  1.71
Comm    | 1.1486     | 1.1486     | 1.1486     |   0.0 |  2.14
Output  | 0.023623   | 0.023623   | 0.023623   |   0.0 |  0.04
Modify  | 2.3488     | 2.3488     | 2.3488     |   0.0 |  4.38
Other   |            | 0.3954     |            |       |  0.74

Nlocal:    500 ave 500 max 500 min
Histogram: 1 0 0 0 0 0 0 0 0 0
Nghost:    1991 ave 1991 max 1991 min
Histogram: 1 0 0 0 0 0 0 0 0 0
Neighs:    31414 ave 31414 max 31414 min
Histogram: 1 0 0 0 0 0 0 0 0 0

Total # of neighbors = 31414
Ave neighs/atom = 62.828
Neighbor list builds = 774
Dangerous builds = 0
System init for write_data ...
Setting up Verlet run ...
  Unit style    : real
  Current step  : 120034
  Time step     : 1
Per MPI rank memory allocation (min/avg/max) = 4.414 | 4.414 | 4.414 Mbytes
Step Temp PotEng Press Volume Density Lx 
  120034    79.501984   -1241.2143   -139.16881    23579.658    2.9506332    28.675599 
  121000     146.4074   -1023.5005    126.42202    26996.869    2.5771477     29.99884 
  122000    157.22785   -926.89751    58.855698    29343.249    2.3710708    30.843908 
  123000    141.72316   -901.74054     73.45506    29906.662     2.326402    31.040067 
  124000    153.64167   -871.00375   -40.971357    30987.236    2.2452768    31.409494 
  125000    146.31795   -860.22224     200.4543    30977.634    2.2459727     31.40625 
  126000    150.73013   -851.12396    263.08888    31027.261    2.2423803    31.423012 
  127000    150.17259   -850.75887    320.25649    30900.126    2.2516063    31.380035 
  128000    161.31054   -852.36159    98.249369    31329.132    2.2207739    31.524591 
  129000     153.0237    -841.8814     92.25178    31703.663    2.1945388    31.649716 
  130000    151.69432   -852.42609    48.341161    31549.578    2.2052568    31.598358 
  131000    148.75224   -871.42474     186.2355     30608.24    2.2730781    31.280915 
  132000    151.10095   -836.09649    75.580635    31785.159    2.1889121    31.676812 
  133000    146.31812   -830.30525   -4.6413776     32068.44     2.169576    31.770639 
  134000      153.519   -849.39247    89.625516    31433.093     2.213429    31.559422 
  135000    150.66548   -852.66716    167.07488    31034.364    2.2418671     31.42541 
  136000    162.86445   -874.47837    346.04834    30263.109    2.2990011    31.162899 
  137000    151.69131   -825.78367    305.20271    31751.664    2.1912213    31.665681 
  138000    161.60761    -826.1859     239.3885    31880.995    2.1823321    31.708616 
  139000    156.71275   -846.57089    106.34722    31641.001    2.1988849     31.62885 
  140000    151.85468    -854.5649     34.84139    31390.398    2.2164396    31.545126 
  141000    149.50049   -839.94539    19.534381    31904.509    2.1807237     31.71641 
  142000    149.16666   -856.91744    95.515356     31327.47    2.2208918    31.524033 
  143000    158.67805   -849.50671    108.69408    31492.191    2.2092753    31.579188 
  144000    147.41377   -826.71528      126.037    31881.233    2.1823158    31.708695 
  145000     144.8267   -860.71668    237.06152    30762.854    2.2616536    31.333498 
  146000    140.98108   -874.83073    171.71627    30522.757    2.2794442    31.251767 
  147000    151.86573   -833.40191   -86.979934    32223.723    2.1591211    31.821836 
  148000    152.70972   -880.84435    65.724858    30519.246    2.2797064    31.250569 
  149000    150.04343   -881.80744    226.99363    30271.563    2.2983591      31.1658 
  150000    156.66518    -848.0219    228.98385    31135.622    2.2345762    31.459551 
  151000    151.24692   -849.45524    279.84606    31137.361    2.2344514    31.460136 
  152000    143.58397   -831.33426    -45.24692    32239.037    2.1580955    31.826877 
  153000    155.40047   -844.27587    52.492864    31685.804    2.1957757    31.643772 
  154000    147.28612   -866.06388    140.09219    30764.014    2.2615684    31.333891 
  155000    156.49499   -851.18055     31.30532    31512.222     2.207871    31.585882 
  156000    146.05687   -849.34414    224.26004    31227.884    2.2279742    31.490594 
  157000    151.76127   -831.51365     26.52567    32129.403    2.1654595    31.790758 
  158000    144.62871   -854.65325    70.618607    31371.573    2.2177696    31.538819 
  159000     141.6207   -859.81377    53.360934    31119.948    2.2357017    31.454271 
  160000    152.01524   -851.67878     211.3362    31007.688    2.2437958    31.416403 
  161000    157.94734   -866.29851    119.80962    30875.767    2.2533827    31.371787 
  162000    147.85433    -827.8689    59.618262    32096.063    2.1677089    31.779758 
  163000     147.1509   -819.37233     58.54457    32366.877    2.1495716     31.86889 
  164000    145.89152   -847.21492    18.219707    31646.176    2.1985254    31.630574 
  165000    151.20307   -869.26375   -69.226777    31206.198    2.2295225    31.483303 
  166000    146.89115   -861.94856   -43.189105     31393.25    2.2162382    31.546082 
  167000    149.73077   -860.12552    142.38947    30991.822    2.2449445    31.411044 
  168000    157.41536   -841.27578    81.869019    31753.616    2.1910866     31.66633 
  169000    150.83308   -861.59703    11.439834    31203.901    2.2296866     31.48253 
  170000    158.30191   -874.03085    61.211451     30838.39    2.2561139    31.359122 
  171000    156.91897   -851.54856   -72.143781     31836.66    2.1853712    31.693911 
  172000    146.67904   -821.05131    140.61048    32130.417    2.1653911    31.791093 
  173000    148.75001   -827.14773    146.37565    31862.168    2.1836216    31.702373 
  174000    151.96746   -857.41764    50.560315    31168.736    2.2322022      31.4707 
  175000    149.76091   -874.59595    183.37136    30535.406    2.2784999    31.256084 
  176000    147.53922   -832.84159   -96.001324    32251.768    2.1572436    31.831065 
  177000    143.48094   -846.77316   -27.748788    31510.491    2.2079923    31.585304 
  178000    142.59988   -851.03611    34.402569    31335.713    2.2203076    31.526798 
  179000    148.52427   -863.72803    54.307675     30990.74    2.2450229    31.410678 
  180000     145.2881   -870.16474   -21.232837    30988.202    2.2452067    31.409821 
  181000    136.62393   -848.26987    15.731491    31444.924    2.2125962    31.563381 
  182000    143.90359   -855.23356     17.10997    31288.646    2.2236475    31.511005 
  183000    152.14901   -865.33836    136.61635    30881.762    2.2529453    31.373817 
  184000    147.65858   -843.78457    188.14145    31501.723    2.2086068    31.582374 
  185000     158.4856   -834.37611    50.248668    32095.682    2.1677346    31.779632 
  186000    149.81273   -842.67111    134.47914     31635.01    2.1993013    31.626854 
  187000    148.45012   -859.77708     207.7056    30973.454    2.2462758    31.404837 
  188000    150.24183   -854.84074   -23.192267    31431.689    2.2135279    31.558952 
  189000    155.08589   -874.55023    17.698247    30856.652    2.2547786    31.365311 
  190000    151.68182   -869.89773    114.72504    30862.686    2.2543379    31.367355 
  191000    152.03214   -827.97682    43.190498    32248.809    2.1574415    31.830092 
  192000    146.75952   -852.06464   -26.779412    31497.281    2.2089183    31.580889 
  193000    147.89027   -862.86229   -27.656771    31293.336    2.2233143    31.512579 
  194000    145.65129   -856.33681    -90.71168    31554.514    2.2049118    31.600006 
  195000    149.67576   -885.93291    190.58073    30172.979    2.3058684    31.131931 
  196000    156.04141   -872.35955    123.62763    30689.895    2.2670303    31.308707 
  197000    149.93802   -842.15336    264.16897    31180.791    2.2313392    31.474756 
  198000    155.37518   -830.10274    182.23224    31753.522     2.191093    31.666299 
  199000    159.59301   -854.56982    133.79291    31077.203    2.2387768    31.439863 
  200000    143.31638   -838.22647   -21.932023    31849.098    2.1845178    31.698038 
  201000    147.88043   -812.95963    62.840566     32486.93     2.141628    31.908243 
  202000    142.41651   -867.28707    118.03579    30936.277    2.2489752    31.392267 
  203000    144.09751   -834.04589    198.52167    31769.843    2.1899674    31.671723 
  204000    149.99471   -850.19049    99.288847    31498.168    2.2088561    31.581186 
  205000    146.80792   -850.60021    129.26267    31285.003    2.2239065    31.509782 
  206000    147.45942   -865.74038    137.54417    30818.557    2.2575658    31.352398 
  207000    158.16962   -862.05398    185.35533    31044.137    2.2411613    31.428708 
  208000    153.25155   -843.89889    100.98624    31659.215    2.1976199    31.634918 
  209000    147.84089   -852.30119     23.37185     31455.18    2.2118748    31.566812 
  210000    148.22366   -855.11006    55.207015    31375.953      2.21746    31.540287 
  211000     144.9274   -869.63186    49.769562     31014.36    2.2433131    31.418656 
  212000    147.87463   -852.26735   -38.836678    31628.798    2.1997333    31.624784 
  213000    151.13892     -861.339   -44.420092    31412.067    2.2149106    31.552384 
  214000    145.64486   -828.99861    28.295978     32134.64    2.1651066    31.792485 
  215000    148.86701   -830.66609    -38.19215    32245.474    2.1576647    31.828995 
  216000    156.88722   -842.17328    117.03603    31516.357    2.2075813    31.587264 
  217000    153.24082   -860.10318    96.863139    31080.277    2.2385554    31.440899 
  218000    154.04204   -868.12171    23.719131    30973.057    2.2463046    31.404703 
  219000    151.32713   -856.76112    20.507469    31353.541    2.2190451    31.532775 
  220000     143.7155   -839.81805   -20.230722     31939.89    2.1783081     31.72813 
  220034     148.1004   -841.76153   -16.170527    31901.643    2.1809197     31.71546 
Loop time of 39.2647 on 1 procs for 100000 steps with 500 atoms

Performance: 220.045 ns/day, 0.109 hours/ns, 2546.816 timesteps/s
95.0% CPU use with 1 MPI tasks x no OpenMP threads

MPI task timing breakdown:
Section |  min time  |  avg time  |  max time  |%varavg| %total
---------------------------------------------------------------
Pair    | 34.288     | 34.288     | 34.288     |   0.0 | 87.33
Neigh   | 1.1252     | 1.1252     | 1.1252     |   0.0 |  2.87
Comm    | 1.1447     | 1.1447     | 1.1447     |   0.0 |  2.92
Output  | 0.016812   | 0.016812   | 0.016812   |   0.0 |  0.04
Modify  | 2.3035     | 2.3035     | 2.3035     |   0.0 |  5.87
Other   |            | 0.3864     |            |       |  0.98

Nlocal:    500 ave 500 max 500 min
Histogram: 1 0 0 0 0 0 0 0 0 0
Nghost:    1957 ave 1957 max 1957 min
Histogram: 1 0 0 0 0 0 0 0 0 0
Neighs:    21592 ave 21592 max 21592 min
Histogram: 1 0 0 0 0 0 0 0 0 0

Total # of neighbors = 21592
Ave neighs/atom = 43.184
Neighbor list builds = 1080
Dangerous builds = 0
System init for write_data ...
Setting up Verlet run ...
  Unit style    : real
  Current step  : 220034
  Time step     : 1
Per MPI rank memory allocation (min/avg/max) = 4.414 | 4.414 | 4.414 Mbytes
Step Temp PotEng Press Volume Density Lx 
  220034     148.1004   -841.76153   -16.170527    31901.643    2.1809197     31.71546 
  221000    493.62721   -475.08891      892.635    47090.438    1.4774745    36.111393 
  222000    513.48933    -313.6278    569.22308    69961.241   0.99447807    41.205245 
  223000    496.47424   -202.93676    386.58852    101065.83   0.68841192     46.58021 
  224000    478.95353   -161.83173    203.08293    141751.02   0.49082482    52.140525 
  225000    498.69816   -114.43489    167.30954    196875.21   0.35339604     58.17419 
  226000    504.07712   -84.757025    115.68344     274787.4   0.25319545     65.01281 
  227000    501.58625   -61.361488    85.865692     381482.3   0.18238047    72.525623 
  228000    486.35713   -49.197623    58.709572    528137.32   0.13173642    80.831807 
  229000    507.74519   -32.448029    45.651172    729713.58  0.095345519    90.029356 
  230000    513.59678   -16.758086    35.194127    999291.51  0.069624249    99.976378 
  230034    505.40978   -16.511143    34.168097    1010471.6  0.068853908    100.34784 
Loop time of 1.55512 on 1 procs for 10000 steps with 500 atoms

Performance: 555.584 ns/day, 0.043 hours/ns, 6430.372 timesteps/s
86.7% CPU use with 1 MPI tasks x no OpenMP threads

MPI task timing breakdown:
Section |  min time  |  avg time  |  max time  |%varavg| %total
---------------------------------------------------------------
Pair    | 1.082      | 1.082      | 1.082      |   0.0 | 69.58
Neigh   | 0.13335    | 0.13335    | 0.13335    |   0.0 |  8.57
Comm    | 0.062958   | 0.062958   | 0.062958   |   0.0 |  4.05
Output  | 0.0019913  | 0.0019913  | 0.0019913  |   0.0 |  0.13
Modify  | 0.24877    | 0.24877    | 0.24877    |   0.0 | 16.00
Other   |            | 0.02607    |            |       |  1.68

Nlocal:    500 ave 500 max 500 min
Histogram: 1 0 0 0 0 0 0 0 0 0
Nghost:    406 ave 406 max 406 min
Histogram: 1 0 0 0 0 0 0 0 0 0
Neighs:    653 ave 653 max 653 min
Histogram: 1 0 0 0 0 0 0 0 0 0

Total # of neighbors = 653
Ave neighs/atom = 1.306
Neighbor list builds = 331
Dangerous builds = 0
Setting up Verlet run ...
  Unit style    : real
  Current step  : 230034
  Time step     : 1
Per MPI rank memory allocation (min/avg/max) = 4.462 | 4.462 | 4.462 Mbytes
Step Temp PotEng Press Volume Density Lx 
  230034    505.40978   -16.511143    34.168097    1010471.6  0.068853908    100.34784 
  231000    517.72965   -25.006935    34.958883    1010471.6  0.068853908    100.34784 
  232000    494.04413   -23.458419    32.993062    1010471.6  0.068853908    100.34784 
  233000    467.62755   -27.763975      31.0717    1010471.6  0.068853908    100.34784 
  234000    482.39223   -22.051461    32.542502    1010471.6  0.068853908    100.34784 
  235000    505.94398   -21.704181    32.792276    1010471.6  0.068853908    100.34784 
  236000    520.00377   -21.192297     35.61899    1010471.6  0.068853908    100.34784 
  237000    502.51747    -22.24407    33.127812    1010471.6  0.068853908    100.34784 
  238000    477.02321   -22.610779    31.412401    1010471.6  0.068853908    100.34784 
  239000    498.20513   -18.184651    33.652344    1010471.6  0.068853908    100.34784 
  240000    529.19861   -14.851273    37.144586    1010471.6  0.068853908    100.34784 
  241000    491.42944   -22.182851    32.122963    1010471.6  0.068853908    100.34784 
  242000    465.14178   -20.824209    31.577343    1010471.6  0.068853908    100.34784 
  243000    488.73811   -20.580609    32.705422    1010471.6  0.068853908    100.34784 
  244000    496.42507   -19.795774    32.953711    1010471.6  0.068853908    100.34784 
  245000    497.78381   -19.923568    32.631008    1010471.6  0.068853908    100.34784 
  246000    514.28904   -22.848446    34.303367    1010471.6  0.068853908    100.34784 
  247000    488.31181   -18.990952    33.762755    1010471.6  0.068853908    100.34784 
  248000    476.25765   -22.489027    30.959607    1010471.6  0.068853908    100.34784 
  249000    508.37711    -24.47459    33.105283    1010471.6  0.068853908    100.34784 
  250000    493.42583   -23.969677    32.470946    1010471.6  0.068853908    100.34784 
  251000    495.11221   -25.899463    31.886112    1010471.6  0.068853908    100.34784 
  252000    500.02254   -22.833944    32.378831    1010471.6  0.068853908    100.34784 
  253000    508.55787   -21.270007    33.817323    1010471.6  0.068853908    100.34784 
  254000    503.53878   -21.045657    33.562901    1010471.6  0.068853908    100.34784 
  255000    493.42392   -23.219249    33.137601    1010471.6  0.068853908    100.34784 
  256000    495.09659   -25.413015    31.926527    1010471.6  0.068853908    100.34784 
  257000    495.52344   -20.293958    34.890414    1010471.6  0.068853908    100.34784 
  258000    516.11836   -23.049812    34.102749    1010471.6  0.068853908    100.34784 
  259000    523.48598   -19.884013    34.431717    1010471.6  0.068853908    100.34784 
  260000    486.20893   -16.736016    34.349026    1010471.6  0.068853908    100.34784 
  261000    489.39833   -22.715046    32.186229    1010471.6  0.068853908    100.34784 
  262000    510.50285   -21.850074    35.016559    1010471.6  0.068853908    100.34784 
  263000    509.95511   -21.988573    33.329285    1010471.6  0.068853908    100.34784 
  264000    474.94163   -21.187911    31.756234    1010471.6  0.068853908    100.34784 
  265000    482.65128   -25.179552    31.029282    1010471.6  0.068853908    100.34784 
  266000    464.69373   -23.125931    30.917831    1010471.6  0.068853908    100.34784 
  267000    514.47699   -19.897751    35.290562    1010471.6  0.068853908    100.34784 
  268000    510.49922   -22.156168    33.265259    1010471.6  0.068853908    100.34784 
  269000     485.4819   -20.603293     34.12875    1010471.6  0.068853908    100.34784 
  270000    503.43456   -24.249389    32.812744    1010471.6  0.068853908    100.34784 
  271000    504.55091   -23.528276    32.655555    1010471.6  0.068853908    100.34784 
  272000     458.1022   -24.544992    29.166441    1010471.6  0.068853908    100.34784 
  273000    490.66059   -23.049652     32.73499    1010471.6  0.068853908    100.34784 
  274000    533.30348   -20.269465    35.172085    1010471.6  0.068853908    100.34784 
  275000    490.07198   -22.794878    32.891222    1010471.6  0.068853908    100.34784 
  276000    481.46818   -25.706113    32.181311    1010471.6  0.068853908    100.34784 
  277000    504.21431   -24.600844    33.534563    1010471.6  0.068853908    100.34784 
  278000    519.04999   -22.763822    34.592313    1010471.6  0.068853908    100.34784 
  279000    481.91957   -23.428904    32.496322    1010471.6  0.068853908    100.34784 
  280000     530.9118   -26.408926    35.412804    1010471.6  0.068853908    100.34784 
  281000    473.70625   -19.946286    32.946761    1010471.6  0.068853908    100.34784 
  282000    509.79999   -17.858731    35.594463    1010471.6  0.068853908    100.34784 
  283000     478.1857   -18.333308    32.400318    1010471.6  0.068853908    100.34784 
  284000    493.58288   -21.545287    33.007677    1010471.6  0.068853908    100.34784 
  285000    525.96548   -22.619413     36.58405    1010471.6  0.068853908    100.34784 
  286000    470.44417   -16.921005    33.353287    1010471.6  0.068853908    100.34784 
  287000    515.93479   -16.967213    35.137548    1010471.6  0.068853908    100.34784 
  288000    518.56932    -21.04565    35.519619    1010471.6  0.068853908    100.34784 
  289000    485.52243   -23.206718    33.250251    1010471.6  0.068853908    100.34784 
  290000     514.6714   -24.970264    34.207439    1010471.6  0.068853908    100.34784 
  291000    531.86797   -25.312374    34.954476    1010471.6  0.068853908    100.34784 
  292000    485.41067   -20.535489    33.101775    1010471.6  0.068853908    100.34784 
  293000    486.11184   -19.884318    34.813214    1010471.6  0.068853908    100.34784 
  294000    497.70622   -27.272661     31.89784    1010471.6  0.068853908    100.34784 
  295000    507.39488    -22.09919    34.151538    1010471.6  0.068853908    100.34784 
  296000    501.36337   -24.599593    32.430927    1010471.6  0.068853908    100.34784 
  297000    498.12415    -24.98171    33.496909    1010471.6  0.068853908    100.34784 
  298000    476.89223   -26.643626    30.352662    1010471.6  0.068853908    100.34784 
  299000    515.77022   -23.195225    34.856944    1010471.6  0.068853908    100.34784 
  300000    469.83955   -23.811033    30.200656    1010471.6  0.068853908    100.34784 
  301000     488.2473   -23.232987    32.731727    1010471.6  0.068853908    100.34784 
  302000    515.22385   -22.762389    34.252999    1010471.6  0.068853908    100.34784 
  303000    522.30478   -21.709353    34.957961    1010471.6  0.068853908    100.34784 
  304000    504.97209   -24.958018    33.047965    1010471.6  0.068853908    100.34784 
  305000      493.055   -21.486734    32.897715    1010471.6  0.068853908    100.34784 
  306000    494.45586   -25.739207    32.884893    1010471.6  0.068853908    100.34784 
  307000    512.21065   -19.761413     35.73914    1010471.6  0.068853908    100.34784 
  308000    494.45722   -21.559277    34.215699    1010471.6  0.068853908    100.34784 
  309000     490.4689   -22.657436    32.799537    1010471.6  0.068853908    100.34784 
  310000    522.61411   -21.007184    35.207915    1010471.6  0.068853908    100.34784 
  311000     488.5279   -23.102168    32.138986    1010471.6  0.068853908    100.34784 
  312000    493.65971    -20.62291    33.801734    1010471.6  0.068853908    100.34784 
  313000    508.25099   -26.239564    33.911888    1010471.6  0.068853908    100.34784 
  314000    511.68708   -25.351739     33.76391    1010471.6  0.068853908    100.34784 
  315000     510.7769   -23.152299    33.537115    1010471.6  0.068853908    100.34784 
  316000    469.57203   -21.140817     32.06037    1010471.6  0.068853908    100.34784 
  317000    483.86444   -25.989168    31.988544    1010471.6  0.068853908    100.34784 
  318000    535.09647   -27.026545    34.720437    1010471.6  0.068853908    100.34784 
  319000    495.05504   -23.442475    34.308432    1010471.6  0.068853908    100.34784 
  320000     488.3689   -23.001444    33.620792    1010471.6  0.068853908    100.34784 
  321000    516.89757   -25.078816     33.45469    1010471.6  0.068853908    100.34784 
  322000     501.9377   -25.380423    33.873771    1010471.6  0.068853908    100.34784 
  323000    465.54245   -19.672952     30.32908    1010471.6  0.068853908    100.34784 
  324000     522.9899   -24.456712    34.913092    1010471.6  0.068853908    100.34784 
  325000    496.37141   -23.060285     33.31502    1010471.6  0.068853908    100.34784 
  326000    479.56671   -19.456715    33.419772    1010471.6  0.068853908    100.34784 
  327000    531.37116   -19.663433    37.562014    1010471.6  0.068853908    100.34784 
  328000    490.49696   -24.203773    31.833066    1010471.6  0.068853908    100.34784 
  329000    484.41355   -20.939288    32.118733    1010471.6  0.068853908    100.34784 
  330000    512.55189   -23.455745     33.86609    1010471.6  0.068853908    100.34784 
  330034    515.71975   -23.301604    34.245696    1010471.6  0.068853908    100.34784 
Loop time of 2.99938 on 1 procs for 100000 steps with 500 atoms

Performance: 2880.595 ns/day, 0.008 hours/ns, 33340.225 timesteps/s
93.0% CPU use with 1 MPI tasks x no OpenMP threads

MPI task timing breakdown:
Section |  min time  |  avg time  |  max time  |%varavg| %total
---------------------------------------------------------------
Pair    | 1.2627     | 1.2627     | 1.2627     |   0.0 | 42.10
Neigh   | 0.24125    | 0.24125    | 0.24125    |   0.0 |  8.04
Comm    | 0.27952    | 0.27952    | 0.27952    |   0.0 |  9.32
Output  | 0.014594   | 0.014594   | 0.014594   |   0.0 |  0.49
Modify  | 0.99635    | 0.99635    | 0.99635    |   0.0 | 33.22
Other   |            | 0.205      |            |       |  6.83

Nlocal:    500 ave 500 max 500 min
Histogram: 1 0 0 0 0 0 0 0 0 0
Nghost:    398 ave 398 max 398 min
Histogram: 1 0 0 0 0 0 0 0 0 0
Neighs:    641 ave 641 max 641 min
Histogram: 1 0 0 0 0 0 0 0 0 0

Total # of neighbors = 641
Ave neighs/atom = 1.282
Neighbor list builds = 1746
Dangerous builds = 0
System init for write_data ...
Setting up Verlet run ...
  Unit style    : real
  Current step  : 330034
  Time step     : 1
Per MPI rank memory allocation (min/avg/max) = 4.462 | 4.462 | 4.462 Mbytes
Step Temp PotEng Press Volume Density Lx 
  330034    515.71975   -23.301604    34.245696    1010471.6  0.068853908    100.34784 
  331000    86.505033   -225.66239    74.065969    108629.19   0.64048087    47.714332 
  332000    87.438557   -579.64243    305.82285    45379.555    1.5331777    35.668656 
  333000    84.593508   -880.88196    682.01405      30241.6    2.3006362    31.155514 
  334000    79.465047   -1035.6477    966.55368    25896.639     2.686639    29.585651 
  335000    81.347275    -1089.314      994.772    24860.569    2.7986053    29.185716 
  336000    78.586066    -1103.364    993.07402    24587.112    2.8297313    29.078311 
  337000    77.893591   -1123.1086    999.88568    24296.615    2.8635644    28.963336 
  338000    84.331338   -1130.7602    984.56335    24205.696    2.8743202    28.927164 
  339000    79.345425   -1136.5616    984.43322    24098.439    2.8871132    28.884375 
  340000    78.271827    -1134.956    926.71802     24173.91    2.8780996    28.914497 
  340034    80.514831   -1138.4253    921.72506    24140.537    2.8820784    28.901185 
Loop time of 5.23621 on 1 procs for 10000 steps with 500 atoms

Performance: 165.005 ns/day, 0.145 hours/ns, 1909.779 timesteps/s
85.4% CPU use with 1 MPI tasks x no OpenMP threads

MPI task timing breakdown:
Section |  min time  |  avg time  |  max time  |%varavg| %total
---------------------------------------------------------------
Pair    | 4.5504     | 4.5504     | 4.5504     |   0.0 | 86.90
Neigh   | 0.15779    | 0.15779    | 0.15779    |   0.0 |  3.01
Comm    | 0.14756    | 0.14756    | 0.14756    |   0.0 |  2.82
Output  | 0.0013041  | 0.0013041  | 0.0013041  |   0.0 |  0.02
Modify  | 0.326      | 0.326      | 0.326      |   0.0 |  6.23
Other   |            | 0.05313    |            |       |  1.01

Nlocal:    500 ave 500 max 500 min
Histogram: 1 0 0 0 0 0 0 0 0 0
Nghost:    2244 ave 2244 max 2244 min
Histogram: 1 0 0 0 0 0 0 0 0 0
Neighs:    29160 ave 29160 max 29160 min
Histogram: 1 0 0 0 0 0 0 0 0 0

Total # of neighbors = 29160
Ave neighs/atom = 58.32
Neighbor list builds = 203
Dangerous builds = 64
Setting up Verlet run ...
  Unit style    : real
  Current step  : 340034
  Time step     : 1
Per MPI rank memory allocation (min/avg/max) = 4.463 | 4.463 | 4.463 Mbytes
Step Temp PotEng Press Volume Density Lx 
  340034    80.514831   -1138.4253    921.72506    24140.537    2.8820784    28.901185 
  341000    78.865716   -1106.7056   -22.020179    25525.131    2.7257419    29.443493 
  342000    77.714539   -1101.0125    71.436038    25488.135    2.7296984    29.429261 
  343000    81.926085   -1108.4326   -32.470729    25513.835    2.7269488    29.439149 
  344000    77.875553   -1114.1455    37.909862    25319.319    2.7478986    29.364144 
  345000    78.842918   -1113.2843    24.787055    25383.825    2.7409155     29.38906 
  346000    82.294836   -1113.8337     99.57541    25292.563    2.7508055    29.353796 
  347000    79.823321   -1114.9667    88.763705    25285.187    2.7516079    29.350943 
  348000    81.650005   -1106.1584    69.283267    25448.017    2.7340017    29.413812 
  349000    74.150132   -1103.2105    57.456085    25513.743    2.7269586    29.439113 
  350000    81.611408   -1116.8302   -124.24506    25470.594    2.7315783    29.422508 
  351000    76.715051   -1115.9377   -161.45308    25452.245    2.7335475    29.415441 
  352000    81.052702   -1112.2163    30.136642    25347.489    2.7448447     29.37503 
  353000    84.136931    -1116.763    71.081005    25242.974    2.7562093      29.3346 
  354000    75.970077   -1104.5746    16.808046    25484.989    2.7300353     29.42805 
  355000    82.204946   -1118.9217    -19.64906    25300.439    2.7499492    29.356843 
  356000    72.507854   -1114.3979   -101.54483    25472.855    2.7313358    29.423379 
  357000    80.766727   -1119.2934    95.224869    25222.307    2.7584678    29.326592 
  358000    80.096776   -1116.9763    73.918232    25234.733    2.7571094    29.331408 
  359000    84.965014   -1114.3554    30.448969     25366.67    2.7427692    29.382437 
  360000    78.866247   -1118.8557   -37.561594    25326.832    2.7470834    29.367048 
  361000    75.143802   -1115.8776   -60.986751    25395.025    2.7397067    29.393381 
  362000    83.374607   -1116.4773     20.08881    25346.411    2.7449614    29.374613 
  363000    86.714182   -1110.4538    151.46896    25308.526    2.7490705    29.359971 
  364000    85.799686   -1106.4325    44.677691    25470.144    2.7316265    29.422335 
  365000    80.568421   -1124.8128   -108.32047    25313.931    2.7484835     29.36206 
  366000    76.855761   -1121.7397    56.600404    25205.493    2.7603079    29.320074 
  367000    82.447662   -1109.7403   -28.093362    25470.986    2.7315362    29.422659 
  368000    76.058007   -1105.7586   -0.5968273    25519.513     2.726342    29.441333 
  369000    80.131873   -1111.6917    73.345586    25355.264     2.744003    29.378033 
  370000    83.949812   -1096.6546    176.38187    25482.232    2.7303307    29.426989 
  371000     80.28524   -1099.9426    32.529689    25593.576    2.7184525    29.469787 
  372000    86.040574   -1115.7483    100.22554    25275.313    2.7526828    29.347122 
  373000    80.521191   -1100.5634    60.427128    25521.379    2.7261427     29.44205 
  374000     80.38177   -1109.3067   -78.443919    25538.158    2.7243516    29.448501 
  375000    78.531271   -1121.6507   -186.67821     25439.61    2.7349051    29.410573 
  376000    78.103482   -1110.6618   -173.52413    25610.219    2.7166859    29.476173 
  377000    82.560001   -1096.9149   -4.1712885    25663.493    2.7110464    29.496597 
  378000    83.606437   -1113.8198    101.21218    25313.862    2.7484909    29.362034 
  379000    76.198617   -1108.1434    87.883035    25353.896    2.7441511    29.377504 
  380000    75.491651   -1110.0783    106.53114    25330.807    2.7466523    29.368584 
  381000    80.400304   -1113.1287   -16.194054    25424.282     2.736554    29.404665 
  382000    75.941773   -1115.3913   -41.087915    25403.626    2.7387791    29.396699 
  383000     79.39965   -1096.4867   -78.107155    25749.401    2.7020015    29.529474 
  384000    82.008197     -1105.83   -7.6129859    25539.441    2.7242147    29.448994 
  385000    82.928972   -1108.4396   -78.240737    25617.624    2.7159006    29.479014 
  386000    78.875694   -1109.6437   -69.052227    25565.759    2.7214104    29.459106 
  387000    80.519866    -1106.194    37.369845    25477.738    2.7308123    29.425258 
  388000    79.147477    -1098.179    36.499268    25609.535    2.7167585     29.47591 
  389000      78.7182   -1099.1201   -145.44173    25783.089    2.6984711    29.542346 
  390000    75.917217   -1102.8578   -53.962481    25642.681    2.7132467    29.488622 
  391000    78.709067   -1109.7337   -14.376811    25440.352    2.7348254    29.410859 
  392000    81.606017   -1106.8784     21.94001    25471.706     2.731459    29.422936 
  393000    76.613635   -1104.7874    5.1816934    25509.969     2.727362    29.437662 
  394000    84.901634   -1111.5044   -72.469746    25518.998    2.7263971    29.441134 
  395000    75.591837   -1095.2022   -5.3633404    25662.156    2.7111876    29.496085 
  396000    79.204734   -1113.4436    1.6703488    25412.328    2.7378413    29.400055 
  397000     79.30491   -1110.4444    131.22341    25324.729    2.7473115    29.366235 
  398000    78.103697   -1113.1468   -33.045253    25455.741    2.7331721    29.416788 
  399000    80.308916   -1108.6792   -183.20776      25684.5    2.7088291    29.504644 
  400000    78.697313   -1107.0309    12.677689    25518.939    2.7264034    29.441111 
  401000    80.124409   -1115.5024   -31.092495    25378.372    2.7415044    29.386955 
  402000    71.835713   -1112.7347    50.972798    25314.402    2.7484323    29.362243 
  403000     80.03142   -1092.4256    59.795699    25669.524    2.7104094    29.498908 
  404000    79.177878   -1116.0351   -51.349773    25388.742    2.7403847    29.390957 
  405000    78.311223   -1106.8543   -32.265499    25506.472    2.7277359    29.436317 
  406000    79.341376   -1107.2984    48.743737    25461.752    2.7325268    29.419103 
  407000    82.167635   -1093.6378    233.14738    25506.031    2.7277831    29.436147 
  408000    81.320623   -1102.3094   -51.286414    25650.541    2.7124153    29.491634 
  409000    79.722537   -1097.4192   -158.15234    25842.537    2.6922636    29.565034 
  410000    80.180203   -1107.3357   -33.082382    25536.642    2.7245133    29.447918 
  411000    82.842351   -1105.7076    70.538943    25455.139    2.7332367    29.416556 
  412000    79.100353    -1107.206   -81.943573    25582.406    2.7196394    29.465499 
  413000    76.178099   -1104.2398   -132.53865    25671.805    2.7101686    29.499782 
  414000    78.762359   -1104.5172   -11.220788    25573.728    2.7205623    29.462166 
  415000    77.801715   -1096.3128   -126.72351    25829.398    2.6936331    29.560022 
  416000    78.652092   -1100.4793   -112.55571    25704.713     2.706699    29.512381 
  417000    80.168084   -1112.9001    60.668878    25358.284    2.7436762    29.379199 
  418000    82.684497   -1090.3853   -151.34271    25957.915    2.6802969    29.608968 
  419000    81.216862     -1099.87    -130.4053    25765.685    2.7002938    29.535698 
  420000    88.312225   -1099.9059   -37.041418    25708.635    2.7062861    29.513882 
  421000     75.40975   -1101.6041    38.104503    25559.328    2.7220951    29.456636 
  422000    80.938865   -1102.3602    157.33971    25397.429    2.7394474    29.394309 
  423000    81.923935   -1102.2455    1.0056992    25604.155    2.7173293    29.473847 
  424000    81.324833   -1098.5515    23.124768    25611.324    2.7165686    29.476597 
  425000    75.833217   -1100.9409   -71.784392    25648.556    2.7126253    29.490874 
  426000    82.758899   -1096.5075   -108.72753    25823.815    2.6942154    29.557893 
  427000    84.810356     -1102.07   -112.22699    25741.849    2.7027942    29.526587 
  428000    80.237314    -1104.313   -18.345215     25567.98    2.7211739    29.459959 
  429000    84.764584   -1117.8556   -40.349615    25394.944    2.7397154     29.39335 
  430000    79.066196   -1103.6191   -141.49896    25693.428    2.7078878    29.508062 
  431000    78.512701   -1110.4336   -87.001354    25518.118    2.7264911    29.440796 
  432000    80.087596   -1097.1856   -108.51683    25771.409     2.699694    29.537885 
  433000    81.992347   -1107.6672    102.57808    25390.597    2.7401845    29.391673 
  434000    77.173042   -1105.5642    143.31882    25386.155     2.740664    29.389959 
  435000    79.242064   -1102.9196    -50.49207     25604.55    2.7172874    29.473998 
  436000    81.876802   -1108.2744   -104.93945    25569.085    2.7210563    29.460384 
  437000    83.532138   -1104.7337    111.70808    25408.226    2.7382832    29.398474 
  438000     80.48986   -1111.4816   -59.881383    25488.974    2.7296085    29.429584 
  439000    81.092993   -1100.0036   -25.197027    25635.564    2.7139999    29.485894 
  440000    78.611295   -1114.0271    20.270796      25360.4    2.7434473    29.380016 
  440034    79.325539   -1112.6239    103.49495    25295.776     2.750456     29.35504 
Loop time of 50.1206 on 1 procs for 100000 steps with 500 atoms

Performance: 172.384 ns/day, 0.139 hours/ns, 1995.186 timesteps/s
91.9% CPU use with 1 MPI tasks x no OpenMP threads

MPI task timing breakdown:
Section |  min time  |  avg time  |  max time  |%varavg| %total
---------------------------------------------------------------
Pair    | 44.897     | 44.897     | 44.897     |   0.0 | 89.58
Neigh   | 0.86146    | 0.86146    | 0.86146    |   0.0 |  1.72
Comm    | 1.3054     | 1.3054     | 1.3054     |   0.0 |  2.60
Output  | 0.019055   | 0.019055   | 0.019055   |   0.0 |  0.04
Modify  | 2.5977     | 2.5977     | 2.5977     |   0.0 |  5.18
Other   |            | 0.4402     |            |       |  0.88

Nlocal:    500 ave 500 max 500 min
Histogram: 1 0 0 0 0 0 0 0 0 0
Nghost:    2172 ave 2172 max 2172 min
Histogram: 1 0 0 0 0 0 0 0 0 0
Neighs:    27597 ave 27597 max 27597 min
Histogram: 1 0 0 0 0 0 0 0 0 0

Total # of neighbors = 27597
Ave neighs/atom = 55.194
Neighbor list builds = 775
Dangerous builds = 0
System init for write_data ...
Total wall time: 0:02:43
