LAMMPS (7 Aug 2019)
Lattice spacing in x,y,z = 5 5 5
Created orthogonal box = (0 0 0) to (30 30 30)
  1 by 1 by 1 MPI processor grid
Created 864 atoms
  create_atoms CPU = 0.000352144 secs
WARNING: Using 'neigh_modify every 1 delay 0 check yes' setting during minimization (../min.cpp:168)
Neighbor list info ...
  update every 1 steps, delay 0 steps, check yes
  max neighbors/atom: 2000, page size: 100000
  master list distance cutoff = 8
  ghost atom cutoff = 8
  binsize = 4, bins = 8 8 8
  1 neighbor lists, perpetual/occasional/extra = 1 0 0
  (1) pair lj/cut, perpetual
      attributes: half, newton on
      pair build: half/bin/atomonly/newton
      stencil: half/bin/3d/newton
      bin: standard
Setting up cg style minimization ...
  Unit style    : real
  Current step  : 0
WARNING: Energy due to 1 extra global DOFs will be included in minimizer energies
Per MPI rank memory allocation (min/avg/max) = 5.582 | 5.582 | 5.582 Mbytes
Step Temp PotEng Press Volume Density Lx 
       0            0   -211.62241    42953.781        27000    4.4527949           30 
      10            0   -261.87678    42047.338    27081.081    4.4394632        30.03 
      20            0   -311.16762    41157.658    27162.324    4.4261846        30.06 
      30            0   -359.51051    40284.436     27243.73     4.412959        30.09 
      40            0   -406.92077    39427.372    27325.298     4.399786        30.12 
      50            0   -453.41346    38586.169    27407.028    4.3866654        30.15 
      60            0   -499.00342    37760.541    27488.922    4.3735969        30.18 
      70            0   -543.70525    36950.202    27570.978    4.3605802        30.21 
      80            0   -587.53332    36154.874    27653.198    4.3476152        30.24 
      90            0   -630.50175    35374.285    27735.581    4.3347015        30.27 
     100            0   -672.62446    34608.166    27818.127    4.3218389         30.3 
     110            0   -713.91515    33856.254    27900.837    4.3090271        30.33 
     120            0   -754.38727     33118.29    27983.711    4.2962659        30.36 
     130            0   -794.05409    32394.021    28066.748    4.2835551        30.39 
     140            0   -832.92864    31683.198     28149.95    4.2708943        30.42 
     150            0   -871.02378    30985.577    28233.316    4.2582834        30.45 
     160            0   -908.35214    30300.919    28316.847    4.2457221        30.48 
     170            0   -944.92614    29628.987    28400.542    4.2332102        30.51 
     180            0   -980.75802    28969.551    28484.401    4.2207474        30.54 
     190            0   -1015.8598    28322.385    28568.426    4.2083334        30.57 
     200            0   -1050.2434    27687.265    28652.616    4.1959681         30.6 
     210            0   -1083.9205    27063.974    28736.971    4.1836512        30.63 
     220            0   -1116.9024    26452.298    28821.491    4.1713824        30.66 
     230            0   -1149.2006    25852.025    28906.178    4.1591616        30.69 
     240            0   -1180.8261    25262.949    28991.029    4.1469884        30.72 
     250            0   -1211.7899    24684.867    29076.047    4.1348627        30.75 
     260            0   -1242.1027    24117.582    29161.231    4.1227843        30.78 
     270            0   -1271.7752    23560.896     29246.58    4.1107528        30.81 
     280            0   -1300.8177    23014.619    29332.097    4.0987681        30.84 
     290            0   -1329.2406    22478.562     29417.78    4.0868299        30.87 
     300            0   -1357.0539     21952.54    29503.629    4.0749381         30.9 
     310            0   -1384.2676    21436.373    29589.645    4.0630924        30.93 
     320            0   -1410.8915    20929.881    29675.829    4.0512925        30.96 
     330            0   -1436.9352    20432.891    29762.179    4.0395383        30.99 
     340            0   -1462.4082     19945.23    29848.697    4.0278295        31.02 
     350            0   -1487.3198     19466.73    29935.383    4.0161659        31.05 
     360            0   -1511.6792    18997.225    30022.236    4.0045473        31.08 
     370            0   -1535.4954    18536.554    30109.257    3.9929734        31.11 
     380            0   -1558.7774    18084.557    30196.446    3.9814442        31.14 
     390            0   -1581.5339    17641.077    30283.803    3.9699592        31.17 
     400            0   -1603.7735    17205.961    30371.328    3.9585184         31.2 
     410            0   -1625.5046    16779.058    30459.022    3.9471216        31.23 
     420            0   -1646.7358    16360.219    30546.884    3.9357684        31.26 
     430            0   -1667.4751      15949.3    30634.916    3.9244587        31.29 
     440            0   -1687.7307    15546.158    30723.116    3.9131923        31.32 
     450            0   -1707.5104    15150.652    30811.485     3.901969        31.35 
     460            0   -1726.8223    14762.645    30900.024    3.8907886        31.38 
     470            0   -1745.6739    14382.001    30988.732    3.8796509        31.41 
     480            0   -1764.0728    14008.589     31077.61    3.8685556        31.44 
     490            0   -1782.0266    13642.278    31166.658    3.8575026        31.47 
     500            0   -1799.5426    13282.939    31255.875    3.8464916         31.5 
     510            0    -1816.628    12930.448    31345.263    3.8355226        31.53 
     520            0     -1833.29    12584.681     31434.82    3.8245952        31.56 
     530            0   -1849.5356    12245.517    31524.549    3.8137092        31.59 
     540            0   -1865.3716    11912.837    31614.448    3.8028646        31.62 
     550            0   -1880.8049    11586.525    31704.517     3.792061        31.65 
     560            0   -1895.8422    11266.465    31794.758    3.7812983        31.68 
     570            0     -1910.49    10952.546    31885.169    3.7705763        31.71 
     580            0   -1924.7548    10644.656    31975.752    3.7598948        31.74 
     590            0   -1938.6431    10342.688    32066.506    3.7492535        31.77 
     600            0    -1952.161    10046.534    32157.432    3.7386525         31.8 
     610            0   -1965.3149    9756.0905    32248.529    3.7280913        31.83 
     620            0   -1978.1107    9471.2543    32339.799    3.7175699        31.86 
     630            0   -1990.5544    9191.9245     32431.24     3.707088        31.89 
     640            0    -2002.652    8918.0022    32522.854    3.6966455        31.92 
     650            0   -2014.4093    8649.3899     32614.64    3.6862422        31.95 
     660            0   -2025.8319    8385.9921    32706.598    3.6758779        31.98 
     670            0   -2036.9255    8127.7151     32798.73    3.6655524        32.01 
     680            0   -2047.6956    7874.4666    32891.034    3.6552655        32.04 
     690            0   -2058.1478    7626.1562    32983.511    3.6450171        32.07 
     700            0   -2068.2872    7382.6951    33076.161     3.634807         32.1 
     710            0   -2078.1193     7143.996    33168.985     3.624635        32.13 
     720            0   -2087.6492    6909.9731    33261.982    3.6145009        32.16 
     730            0    -2096.882    6680.5424    33355.152    3.6044045        32.19 
     740            0   -2105.8228    6455.6211    33448.497    3.5943457        32.22 
     750            0   -2114.4766    6235.1282    33542.016    3.5843243        32.25 
     760            0   -2122.8481    6018.9839    33635.708    3.5743401        32.28 
     770            0   -2130.9423    5807.1099    33729.575     3.564393        32.31 
     780            0   -2138.7638    5599.4293    33823.617    3.5544827        32.34 
     790            0   -2146.3173    5395.8667    33917.833    3.5446092        32.37 
     800            0   -2153.6074    5196.3478    34012.224    3.5347722         32.4 
     810            0   -2160.6386    5000.7998     34106.79    3.5249715        32.43 
     820            0   -2167.4153    4809.1513    34201.531     3.515207        32.46 
     830            0   -2173.9419    4621.3319    34296.447    3.5054786        32.49 
     840            0   -2180.2228    4437.2727    34391.539     3.495786        32.52 
     850            0    -2186.262    4256.9058    34486.806    3.4861292        32.55 
     860            0   -2192.0639    4080.1648     34582.25    3.4765079        32.58 
     870            0   -2197.6326    3906.9842    34677.869    3.4669219        32.61 
     880            0   -2202.9719    3737.2998    34773.664    3.4573712        32.64 
     890            0    -2208.086    3571.0487    34869.635    3.4478555        32.67 
     900            0   -2212.9788    3408.1688    34965.783    3.4383747         32.7 
     910            0   -2217.6541    3248.5993    35062.107    3.4289286        32.73 
     920            0   -2222.1157    3092.2805    35158.609    3.4195171        32.76 
     930            0   -2226.3673    2939.1536    35255.287      3.41014        32.79 
     940            0   -2230.4126    2789.1611    35352.142    3.4007971        32.82 
     950            0   -2234.2552    2642.2463    35449.174    3.3914884        32.85 
     960            0   -2237.8988    2498.3536    35546.384    3.3822136        32.88 
     970            0   -2241.3467    2357.4284    35643.771    3.3729726        32.91 
     980            0   -2244.6025     2219.417    35741.336    3.3637652        32.94 
     990            0   -2247.6695    2084.2667    35839.079    3.3545913        32.97 
    1000            0   -2250.5512    1951.9257        35937    3.3454507           33 
    1010            0   -2253.2507    1822.3433    36035.099    3.3363433        33.03 
    1020            0   -2255.7713    1695.4695    36133.377     3.327269        33.06 
    1030            0   -2258.1163    1571.2551    36231.833    3.3182275        33.09 
    1040            0   -2260.2887    1449.6521    36330.467    3.3092187        33.12 
    1050            0   -2262.2917     1330.613    36429.281    3.3002425        33.15 
    1060            0   -2264.1283    1214.0915    36528.273    3.2912988        33.18 
    1070            0   -2265.8015    1100.0417    36627.445    3.2823873        33.21 
    1080            0   -2267.3142    988.41895    36726.796     3.273508        33.24 
    1090            0   -2268.6693    879.17906    36826.327    3.2646607        33.27 
    1100            0   -2269.8698    772.27878    36926.037    3.2558453         33.3 
    1110            0   -2270.9183    667.67558    37025.927    3.2470615        33.33 
    1120            0   -2271.8178    565.32769    37125.997    3.2383093        33.36 
    1130            0   -2272.5708    465.19409    37226.247    3.2295886        33.39 
    1140            0   -2273.1802    367.23447    37326.678    3.2208991        33.42 
    1150            0   -2273.6484    271.40923    37427.289    3.2122408        33.45 
    1160            0   -2273.9782     177.6795     37528.08    3.2036134        33.48 
    1170            0   -2274.1721    86.007055    37629.053     3.195017        33.51 
    1180            0   -2274.2327 -0.0020174359    37726.047    3.1868025    33.538768 
    1182            0   -2274.2327 -5.1343847e-11    37726.045    3.1868027    33.538767 
Loop time of 0.70792 on 1 procs for 1182 steps with 864 atoms

99.1% CPU use with 1 MPI tasks x no OpenMP threads

Minimization stats:
  Stopping criterion = force tolerance
  Energy initial, next-to-last, final = 
         -211.62240787     -2274.23268122     -2274.23268122
  Force two-norm initial, final = 50741.4 9.16045e-11
  Force max component initial, final = 50741.4 7.58055e-11
  Final line search alpha, max atom move = 1 7.58055e-11
  Iterations, force evaluations = 1182 1185

MPI task timing breakdown:
Section |  min time  |  avg time  |  max time  |%varavg| %total
---------------------------------------------------------------
Pair    | 0.60012    | 0.60012    | 0.60012    |   0.0 | 84.77
Neigh   | 0.010557   | 0.010557   | 0.010557   |   0.0 |  1.49
Comm    | 0.013063   | 0.013063   | 0.013063   |   0.0 |  1.85
Output  | 0.0012622  | 0.0012622  | 0.0012622  |   0.0 |  0.18
Modify  | 0          | 0          | 0          |   0.0 |  0.00
Other   |            | 0.08292    |            |       | 11.71

Nlocal:    864 ave 864 max 864 min
Histogram: 1 0 0 0 0 0 0 0 0 0
Nghost:    1593 ave 1593 max 1593 min
Histogram: 1 0 0 0 0 0 0 0 0 0
Neighs:    23328 ave 23328 max 23328 min
Histogram: 1 0 0 0 0 0 0 0 0 0

Total # of neighbors = 23328
Ave neighs/atom = 27
Neighbor list builds = 12
Dangerous builds = 0
Setting up Verlet run ...
  Unit style    : real
  Current step  : 1182
  Time step     : 1
Per MPI rank memory allocation (min/avg/max) = 4.459 | 4.459 | 4.459 Mbytes
Step Temp PotEng Press Volume Density Lx 
    1182            0   -2274.2327 -5.1343847e-11    37726.045    3.1868027    33.538767 
    1190 1.6267062e-25   -2274.2327 -1.1042135e-11    37726.045    3.1868027    33.538767 
    1200 8.3639037e-25   -2274.2327 7.4040019e-11    37726.045    3.1868027    33.538767 
    1210 2.0579617e-24   -2274.2327 -9.4025368e-11    37726.045    3.1868027    33.538767 
    1220 3.8221371e-24   -2274.2327 -9.4703557e-11    37726.045    3.1868027    33.538767 
    1230 6.1508779e-24   -2274.2327 1.145447e-10    37726.045    3.1868027    33.538767 
    1240 9.095093e-24   -2274.2327 -9.4365161e-11    37726.045    3.1868027    33.538767 
    1250 1.2637237e-23   -2274.2327 -5.3449107e-11    37726.045    3.1868027    33.538767 
    1260 1.6725198e-23   -2274.2327 1.1548401e-10    37726.045    3.1868027    33.538767 
    1270 2.1354953e-23   -2274.2327 -9.3879577e-11    37726.045    3.1868027    33.538767 
    1280 2.651728e-23   -2274.2327 -5.2028645e-11    37726.045    3.1868027    33.538767 
    1290 3.2147436e-23   -2274.2327 7.3012369e-11    37726.045    3.1868027    33.538767 
    1300 3.8129409e-23   -2274.2327 -5.2390701e-11    37726.045    3.1868027    33.538767 
    1310 4.4423658e-23   -2274.2327 -5.2063167e-11    37726.045    3.1868027    33.538767 
    1320 5.1071646e-23   -2274.2327 -5.1330546e-11    37726.045    3.1868027    33.538767 
    1330 5.7898785e-23   -2274.2327 7.3310845e-11    37726.045    3.1868027    33.538767 
    1340 6.4894518e-23   -2274.2327 -5.2897035e-11    37726.045    3.1868027    33.538767 
    1350 7.201411e-23   -2274.2327 -9.4582317e-11    37726.045    3.1868027    33.538767 
    1360 7.9159986e-23   -2274.2327 1.1488205e-10    37726.045    3.1868027    33.538767 
    1370 8.6172177e-23   -2274.2327 -5.2409821e-11    37726.045    3.1868027    33.538767 
    1380 9.2906393e-23   -2274.2327 -9.3705082e-11    37726.045    3.1868027    33.538767 
    1390 9.9259751e-23   -2274.2327 1.1408198e-10    37726.045    3.1868027    33.538767 
    1400 1.0524875e-22   -2274.2327 -9.3347818e-11    37726.045    3.1868027    33.538767 
    1410 1.1052079e-22   -2274.2327 -9.4864012e-11    37726.045    3.1868027    33.538767 
    1420 1.1506965e-22   -2274.2327 7.3581408e-11    37726.045    3.1868027    33.538767 
    1430 1.1899723e-22   -2274.2327 -5.9527317e-12    37726.045    3.1868027    33.538767 
    1440 1.2256311e-22   -2274.2327 -5.1504134e-11    37726.045    3.1868027    33.538767 
    1450 1.2586375e-22   -2274.2327 -5.6543981e-11    37726.045    3.1868027    33.538767 
    1460 1.2858524e-22   -2274.2327 7.5929603e-11    37726.045    3.1868027    33.538767 
    1470 1.3093494e-22   -2274.2327 -1.1043699e-11    37726.045    3.1868027    33.538767 
    1480 1.3263888e-22   -2274.2327 -9.9518227e-11    37726.045    3.1868027    33.538767 
    1490 1.3378001e-22   -2274.2327 1.1700362e-10    37726.045    3.1868027    33.538767 
    1500 1.3436591e-22   -2274.2327 -1.1616101e-11    37726.045    3.1868027    33.538767 
    1510 1.339893e-22   -2274.2327 -1.3218932e-10    37726.045    3.1868027    33.538767 
    1520  1.32822e-22   -2274.2327 1.1683155e-10    37726.045    3.1868027    33.538767 
    1530 1.311386e-22   -2274.2327 -9.0051729e-11    37726.045    3.1868027    33.538767 
    1540 1.2885098e-22   -2274.2327 -9.7202924e-11    37726.045    3.1868027    33.538767 
    1550 1.2618399e-22   -2274.2327 7.4359801e-11    37726.045    3.1868027    33.538767 
    1560 1.2402955e-22   -2274.2327 3.3458058e-11    37726.045    3.1868027    33.538767 
    1570 1.2244801e-22   -2274.2327 -5.7281798e-11    37726.045    3.1868027    33.538767 
    1580 1.2092792e-22   -2274.2327 -5.4280722e-11    37726.045    3.1868027    33.538767 
    1590 1.1891595e-22   -2274.2327 3.2032316e-11    37726.045    3.1868027    33.538767 
    1600 1.166535e-22   -2274.2327 3.4382377e-11    37726.045    3.1868027    33.538767 
    1610 1.1565992e-22   -2274.2327 3.6722735e-11    37726.045    3.1868027    33.538767 
    1620 1.1597733e-22   -2274.2327 -1.2432211e-11    37726.045    3.1868027    33.538767 
    1630 1.1743621e-22   -2274.2327 -1.0569062e-11    37726.045    3.1868027    33.538767 
    1640 1.2025483e-22   -2274.2327 -7.9504225e-12    37726.045    3.1868027    33.538767 
    1650 1.2460485e-22   -2274.2327 -1.483282e-11    37726.045    3.1868027    33.538767 
    1660 1.3052701e-22   -2274.2327 -1.2202561e-11    37726.045    3.1868027    33.538767 
    1670 1.3788958e-22   -2274.2327 -1.0973006e-11    37726.045    3.1868027    33.538767 
    1680 1.4663165e-22   -2274.2327 -7.5228527e-12    37726.045    3.1868027    33.538767 
    1690 1.5657077e-22   -2274.2327 -6.4813294e-12    37726.045    3.1868027    33.538767 
    1700 1.675594e-22   -2274.2327 -1.3367729e-11    37726.045    3.1868027    33.538767 
    1710 1.7945617e-22   -2274.2327 -8.2787803e-12    37726.045    3.1868027    33.538767 
    1720 1.9216403e-22   -2274.2327 3.2244848e-11    37726.045    3.1868027    33.538767 
    1730 2.0529601e-22   -2274.2327 2.9316179e-11    37726.045    3.1868027    33.538767 
    1740 2.1878873e-22   -2274.2327 3.4527125e-11    37726.045    3.1868027    33.538767 
    1750 2.3268199e-22   -2274.2327 -7.7415393e-12    37726.045    3.1868027    33.538767 
    1760 2.4584783e-22   -2274.2327 -5.0018141e-11    37726.045    3.1868027    33.538767 
    1770 2.5819644e-22   -2274.2327 -4.9926496e-11    37726.045    3.1868027    33.538767 
    1780 2.6978804e-22   -2274.2327 6.9158692e-11    37726.045    3.1868027    33.538767 
    1790 2.7985234e-22   -2274.2327 3.1650081e-11    37726.045    3.1868027    33.538767 
    1800 2.8866441e-22   -2274.2327 -9.4494674e-11    37726.045    3.1868027    33.538767 
    1810 2.967593e-22   -2274.2327 1.1127003e-10    37726.045    3.1868027    33.538767 
    1820 3.0305351e-22   -2274.2327 3.1850388e-11    37726.045    3.1868027    33.538767 
    1830 3.067461e-22   -2274.2327 -1.3488874e-10    37726.045    3.1868027    33.538767 
    1840 3.0744023e-22   -2274.2327 1.1238218e-10    37726.045    3.1868027    33.538767 
    1850 3.0559273e-22   -2274.2327 -5.1147744e-11    37726.045    3.1868027    33.538767 
    1860 3.0136591e-22   -2274.2327 -9.5267585e-11    37726.045    3.1868027    33.538767 
    1870 2.9502578e-22   -2274.2327 7.1326472e-11    37726.045    3.1868027    33.538767 
    1880 2.8783374e-22   -2274.2327 7.3071122e-11    37726.045    3.1868027    33.538767 
    1890 2.8034212e-22   -2274.2327 -5.4380102e-11    37726.045    3.1868027    33.538767 
    1900 2.7277005e-22   -2274.2327 -5.0608805e-11    37726.045    3.1868027    33.538767 
    1910 2.6560814e-22   -2274.2327 7.5806143e-11    37726.045    3.1868027    33.538767 
    1920 2.5846626e-22   -2274.2327 7.1685266e-11    37726.045    3.1868027    33.538767 
    1930 2.5182522e-22   -2274.2327 -9.375531e-11    37726.045    3.1868027    33.538767 
    1940 2.4562935e-22   -2274.2327 1.170481e-10    37726.045    3.1868027    33.538767 
    1950 2.4071806e-22   -2274.2327 7.3659953e-11    37726.045    3.1868027    33.538767 
    1960 2.3752062e-22   -2274.2327 -1.3688944e-10    37726.045    3.1868027    33.538767 
    1970 2.3616838e-22   -2274.2327 1.167439e-10    37726.045    3.1868027    33.538767 
    1980 2.3655811e-22   -2274.2327 -1.3541754e-11    37726.045    3.1868027    33.538767 
    1990 2.3881524e-22   -2274.2327 -1.3806976e-10    37726.045    3.1868027    33.538767 
    2000 2.4327262e-22   -2274.2327 1.1665925e-10    37726.045    3.1868027    33.538767 
    2010 2.5036204e-22   -2274.2327 -9.4424805e-11    37726.045    3.1868027    33.538767 
    2020 2.6041877e-22   -2274.2327 -9.5422675e-11    37726.045    3.1868027    33.538767 
    2030 2.7343711e-22   -2274.2327 7.0654186e-11    37726.045    3.1868027    33.538767 
    2040 2.8895945e-22   -2274.2327 2.7537848e-11    37726.045    3.1868027    33.538767 
    2050 3.0685854e-22   -2274.2327 -5.4554143e-11    37726.045    3.1868027    33.538767 
    2060 3.2606597e-22   -2274.2327 -5.0160502e-11    37726.045    3.1868027    33.538767 
    2070 3.4601588e-22   -2274.2327 3.2503824e-11    37726.045    3.1868027    33.538767 
    2080 3.6631843e-22   -2274.2327 3.2229344e-11    37726.045    3.1868027    33.538767 
    2090 3.8722607e-22   -2274.2327 3.0178499e-11    37726.045    3.1868027    33.538767 
    2100 4.0909475e-22   -2274.2327 -9.571562e-12    37726.045    3.1868027    33.538767 
    2110 4.3104171e-22   -2274.2327 -1.1963477e-11    37726.045    3.1868027    33.538767 
    2120 4.5259488e-22   -2274.2327 -7.1468396e-12    37726.045    3.1868027    33.538767 
    2130 4.744235e-22   -2274.2327 -1.129642e-11    37726.045    3.1868027    33.538767 
    2140 4.9639739e-22   -2274.2327 -6.0279646e-12    37726.045    3.1868027    33.538767 
    2150 5.1851085e-22   -2274.2327 -1.1688156e-11    37726.045    3.1868027    33.538767 
    2160 5.411739e-22   -2274.2327 -7.3118172e-12    37726.045    3.1868027    33.538767 
    2170 5.6421984e-22   -2274.2327 -1.1760496e-11    37726.045    3.1868027    33.538767 
    2180 5.8759307e-22   -2274.2327 -1.0454548e-11    37726.045    3.1868027    33.538767 
    2190 6.1124841e-22   -2274.2327 -8.943786e-12    37726.045    3.1868027    33.538767 
    2200 6.3552307e-22   -2274.2327 -1.1099526e-11    37726.045    3.1868027    33.538767 
    2210 6.605032e-22   -2274.2327 3.0791023e-11    37726.045    3.1868027    33.538767 
    2220 6.8651594e-22   -2274.2327 3.4836296e-11    37726.045    3.1868027    33.538767 
    2230 7.1376575e-22   -2274.2327 3.0548845e-11    37726.045    3.1868027    33.538767 
    2240 7.4132923e-22   -2274.2327 -1.1805394e-11    37726.045    3.1868027    33.538767 
    2250 7.6844424e-22   -2274.2327 -8.2655128e-12    37726.045    3.1868027    33.538767 
    2260 7.9579758e-22   -2274.2327 -1.0460972e-11    37726.045    3.1868027    33.538767 
    2270 8.2483134e-22   -2274.2327 -1.1470142e-11    37726.045    3.1868027    33.538767 
    2280 8.5623515e-22   -2274.2327 -1.0600104e-11    37726.045    3.1868027    33.538767 
    2290 8.9068018e-22   -2274.2327 -9.5572687e-12    37726.045    3.1868027    33.538767 
    2300 9.2876974e-22   -2274.2327 -7.171878e-12    37726.045    3.1868027    33.538767 
    2310 9.7039726e-22   -2274.2327 -1.0621459e-11    37726.045    3.1868027    33.538767 
    2320 1.0153962e-21   -2274.2327 -8.777648e-12    37726.045    3.1868027    33.538767 
    2330 1.0643761e-21   -2274.2327 -1.0388244e-11    37726.045    3.1868027    33.538767 
    2340 1.1177896e-21   -2274.2327 -1.287663e-11    37726.045    3.1868027    33.538767 
    2350 1.1745609e-21   -2274.2327 3.3261501e-11    37726.045    3.1868027    33.538767 
    2360 1.2346948e-21   -2274.2327 3.1499548e-11    37726.045    3.1868027    33.538767 
    2370 1.2972155e-21   -2274.2327  3.29678e-11    37726.045    3.1868027    33.538767 
    2380 1.3610174e-21   -2274.2327 -9.0644041e-12    37726.045    3.1868027    33.538767 
    2390 1.4250296e-21   -2274.2327 -1.2661139e-11    37726.045    3.1868027    33.538767 
    2400 1.4885049e-21   -2274.2327 -9.9599178e-12    37726.045    3.1868027    33.538767 
    2410 1.5504492e-21   -2274.2327 -9.0404924e-12    37726.045    3.1868027    33.538767 
    2420 1.6111484e-21   -2274.2327 -1.0245833e-11    37726.045    3.1868027    33.538767 
    2430 1.6697018e-21   -2274.2327 -1.2150164e-11    37726.045    3.1868027    33.538767 
    2440 1.7250612e-21   -2274.2327 -9.7918965e-12    37726.045    3.1868027    33.538767 
    2450 1.776758e-21   -2274.2327 -1.0807927e-11    37726.045    3.1868027    33.538767 
    2460 1.8240907e-21   -2274.2327 -1.1566478e-11    37726.045    3.1868027    33.538767 
    2470 1.8663806e-21   -2274.2327 -1.1432054e-11    37726.045    3.1868027    33.538767 
    2480 1.902655e-21   -2274.2327 3.2234422e-11    37726.045    3.1868027    33.538767 
    2490 1.9308649e-21   -2274.2327 3.1752319e-11    37726.045    3.1868027    33.538767 
    2500 1.9499892e-21   -2274.2327 3.1388985e-11    37726.045    3.1868027    33.538767 
    2510 1.9596785e-21   -2274.2327 3.1319621e-11    37726.045    3.1868027    33.538767 
    2520 1.9595126e-21   -2274.2327 -9.7412143e-12    37726.045    3.1868027    33.538767 
    2530 1.9501796e-21   -2274.2327 -1.0403445e-11    37726.045    3.1868027    33.538767 
    2540 1.9337828e-21   -2274.2327 -9.333302e-12    37726.045    3.1868027    33.538767 
    2550 1.9118224e-21   -2274.2327 -1.0502657e-11    37726.045    3.1868027    33.538767 
    2560 1.8867448e-21   -2274.2327 -1.0367191e-11    37726.045    3.1868027    33.538767 
    2570 1.8619769e-21   -2274.2327 -1.1472025e-11    37726.045    3.1868027    33.538767 
    2580 1.841613e-21   -2274.2327 -1.1036031e-11    37726.045    3.1868027    33.538767 
    2590 1.8309197e-21   -2274.2327 -1.0094442e-11    37726.045    3.1868027    33.538767 
    2600 1.8345386e-21   -2274.2327 -1.0612984e-11    37726.045    3.1868027    33.538767 
    2610 1.8553451e-21   -2274.2327 -1.0800175e-11    37726.045    3.1868027    33.538767 
    2620 1.8974896e-21   -2274.2327 3.1412342e-11    37726.045    3.1868027    33.538767 
    2630 1.9638666e-21   -2274.2327 3.1225033e-11    37726.045    3.1868027    33.538767 
    2640 2.0616293e-21   -2274.2327 3.2013348e-11    37726.045    3.1868027    33.538767 
    2650 2.195221e-21   -2274.2327 -5.2569636e-11    37726.045    3.1868027    33.538767 
    2660 2.3676676e-21   -2274.2327 -5.2703421e-11    37726.045    3.1868027    33.538767 
    2670 2.5851207e-21   -2274.2327 -1.1339804e-11    37726.045    3.1868027    33.538767 
    2680 2.8498684e-21   -2274.2327 7.3527413e-11    37726.045    3.1868027    33.538767 
    2690 3.1636977e-21   -2274.2327 -9.4229879e-11    37726.045    3.1868027    33.538767 
    2700 3.5216541e-21   -2274.2327 -9.4547895e-11    37726.045    3.1868027    33.538767 
    2710 3.9240184e-21   -2274.2327 1.1537624e-10    37726.045    3.1868027    33.538767 
    2720 4.3679952e-21   -2274.2327 -9.4577239e-11    37726.045    3.1868027    33.538767 
    2730 4.8499909e-21   -2274.2327 -9.4178575e-11    37726.045    3.1868027    33.538767 
    2740 5.363214e-21   -2274.2327 1.5818765e-10    37726.045    3.1868027    33.538767 
    2750 5.9000247e-21   -2274.2327 -1.3664824e-10    37726.045    3.1868027    33.538767 
    2760 6.4505449e-21   -2274.2327 -5.1641197e-11    37726.045    3.1868027    33.538767 
    2770 7.0072081e-21   -2274.2327 1.9952878e-10    37726.045    3.1868027    33.538767 
    2780 7.5600154e-21   -2274.2327 -1.7912622e-10    37726.045    3.1868027    33.538767 
    2790 8.0982285e-21   -2274.2327 -1.0937206e-11    37726.045    3.1868027    33.538767 
    2800 8.6149033e-21   -2274.2327 1.9981254e-10    37726.045    3.1868027    33.538767 
    2810 9.1016197e-21   -2274.2327 -1.7841205e-10    37726.045    3.1868027    33.538767 
    2820 9.5515244e-21   -2274.2327 3.1151028e-11    37726.045    3.1868027    33.538767 
    2830 9.9526595e-21   -2274.2327 1.5790363e-10    37726.045    3.1868027    33.538767 
    2840 1.0293653e-20   -2274.2327 -1.7858217e-10    37726.045    3.1868027    33.538767 
    2850 1.0570934e-20   -2274.2327 1.1457685e-10    37726.045    3.1868027    33.538767 
    2860 1.0776642e-20   -2274.2327 7.3597181e-11    37726.045    3.1868027    33.538767 
    2870 1.0908311e-20   -2274.2327 -1.7890834e-10    37726.045    3.1868027    33.538767 
    2880 1.0969277e-20   -2274.2327 1.5761153e-10    37726.045    3.1868027    33.538767 
    2890 1.0959736e-20   -2274.2327 3.2029642e-11    37726.045    3.1868027    33.538767 
    2900 1.0884127e-20   -2274.2327 -2.2093829e-10    37726.045    3.1868027    33.538767 
    2910 1.0748453e-20   -2274.2327 2.0005773e-10    37726.045    3.1868027    33.538767 
    2920 1.0561475e-20   -2274.2327 -1.0775322e-11    37726.045    3.1868027    33.538767 
    2930 1.0335513e-20   -2274.2327 -1.7875273e-10    37726.045    3.1868027    33.538767 
    2940 1.0085695e-20   -2274.2327 1.9996129e-10    37726.045    3.1868027    33.538767 
    2950 9.8277578e-21   -2274.2327 -5.1965149e-11    37726.045    3.1868027    33.538767 
    2960 9.5806589e-21   -2274.2327 -1.7842037e-10    37726.045    3.1868027    33.538767 
    2970 9.3628354e-21   -2274.2327 2.4172758e-10    37726.045    3.1868027    33.538767 
    2980 9.193802e-21   -2274.2327 -1.0113141e-11    37726.045    3.1868027    33.538767 
    2990 9.0947581e-21   -2274.2327 -2.2018665e-10    37726.045    3.1868027    33.538767 
    3000 9.0855264e-21   -2274.2327 1.9973617e-10    37726.045    3.1868027    33.538767 
    3010 9.1801067e-21   -2274.2327 3.1745391e-11    37726.045    3.1868027    33.538767 
    3020 9.3931966e-21   -2274.2327 -2.6254365e-10    37726.045    3.1868027    33.538767 
    3030 9.7383303e-21   -2274.2327 1.1533748e-10    37726.045    3.1868027    33.538767 
    3040 1.0223585e-20   -2274.2327 1.9996599e-10    37726.045    3.1868027    33.538767 
    3050  1.08508e-20   -2274.2327 -2.2047576e-10    37726.045    3.1868027    33.538767 
    3060 1.1619568e-20   -2274.2327 -1.3652584e-10    37726.045    3.1868027    33.538767 
    3070 1.2526286e-20   -2274.2327 2.8385496e-10    37726.045    3.1868027    33.538767 
    3080 1.356265e-20   -2274.2327 7.4414267e-11    37726.045    3.1868027    33.538767 
    3090 1.4715133e-20   -2274.2327 -3.0456064e-10    37726.045    3.1868027    33.538767 
    3100 1.5965694e-20   -2274.2327 -1.035389e-11    37726.045    3.1868027    33.538767 
    3110 1.7293938e-20   -2274.2327 3.2631228e-10    37726.045    3.1868027    33.538767 
    3120 1.8675083e-20   -2274.2327 -5.2200231e-11    37726.045    3.1868027    33.538767 
    3130 2.0077998e-20   -2274.2327 -3.4638011e-10    37726.045    3.1868027    33.538767 
    3140 2.1472377e-20   -2274.2327 1.9992102e-10    37726.045    3.1868027    33.538767 
    3150 2.2827549e-20   -2274.2327 2.4169465e-10    37726.045    3.1868027    33.538767 
    3160 2.4110679e-20   -2274.2327 -3.4700159e-10    37726.045    3.1868027    33.538767 
    3170 2.5287478e-20   -2274.2327 -5.2821819e-11    37726.045    3.1868027    33.538767 
    3180 2.6329755e-20   -2274.2327 4.1014614e-10    37726.045    3.1868027    33.538767 
    3190 2.7217256e-20   -2274.2327 -2.2077126e-10    37726.045    3.1868027    33.538767 
    3200 2.7935626e-20   -2274.2327 -3.0481457e-10    37726.045    3.1868027    33.538767 
    3210 2.8473331e-20   -2274.2327 4.0991911e-10    37726.045    3.1868027    33.538767 
    3220 2.8828345e-20   -2274.2327 3.1968131e-11    37726.045    3.1868027    33.538767 
    3230 2.9008922e-20   -2274.2327 -4.3099739e-10    37726.045    3.1868027    33.538767 
    3240 2.9035399e-20   -2274.2327 2.4212145e-10    37726.045    3.1868027    33.538767 
    3250 2.8933459e-20   -2274.2327 2.8378336e-10    37726.045    3.1868027    33.538767 
    3260 2.8738858e-20   -2274.2327 -3.8843948e-10    37726.045    3.1868027    33.538767 
    3270 2.8500886e-20   -2274.2327 -1.0571551e-11    37726.045    3.1868027    33.538767 
    3280 2.8275599e-20   -2274.2327 4.101681e-10    37726.045    3.1868027    33.538767 
    3290 2.8129197e-20   -2274.2327 -2.6267024e-10    37726.045    3.1868027    33.538767 
    3300 2.8132986e-20   -2274.2327 -3.0488507e-10    37726.045    3.1868027    33.538767 
    3310 2.8367246e-20   -2274.2327 4.1016481e-10    37726.045    3.1868027    33.538767 
    3320 2.8914177e-20   -2274.2327 3.1376609e-11    37726.045    3.1868027    33.538767 
    3330 2.9856228e-20   -2274.2327 -4.727079e-10    37726.045    3.1868027    33.538767 
    3340 3.1274188e-20   -2274.2327 2.4200302e-10    37726.045    3.1868027    33.538767 
    3350 3.3244681e-20   -2274.2327 3.6802122e-10    37726.045    3.1868027    33.538767 
    3360 3.5836065e-20   -2274.2327 -4.3073115e-10    37726.045    3.1868027    33.538767 
    3370 3.9107901e-20   -2274.2327 -1.3652456e-10    37726.045    3.1868027    33.538767 
    3380 4.3105626e-20   -2274.2327 4.9414695e-10    37726.045    3.1868027    33.538767 
    3390 4.7859937e-20   -2274.2327 -9.4250596e-11    37726.045    3.1868027    33.538767 
    3400 5.338285e-20   -2274.2327 -4.3084442e-10    37726.045    3.1868027    33.538767 
    3410 5.9669972e-20   -2274.2327 3.2617203e-10    37726.045    3.1868027    33.538767 
    3420 6.6693246e-20   -2274.2327 2.8394803e-10    37726.045    3.1868027    33.538767 
    3430 7.4399875e-20   -2274.2327 -5.1498156e-10    37726.045    3.1868027    33.538767 
    3440 8.2714571e-20   -2274.2327 -9.4481591e-11    37726.045    3.1868027    33.538767 
    3450 9.1542006e-20   -2274.2327 5.3616367e-10    37726.045    3.1868027    33.538767 
    3460 1.0076661e-19   -2274.2327 -9.4814153e-11    37726.045    3.1868027    33.538767 
    3470 1.1024759e-19   -2274.2327 -4.7250791e-10    37726.045    3.1868027    33.538767 
    3480 1.1983616e-19   -2274.2327 3.2627671e-10    37726.045    3.1868027    33.538767 
    3490 1.2936683e-19   -2274.2327 3.2619112e-10    37726.045    3.1868027    33.538767 
    3500 1.3867837e-19   -2274.2327 -4.7280492e-10    37726.045    3.1868027    33.538767 
    3510 1.4760549e-19   -2274.2327 -1.784466e-10    37726.045    3.1868027    33.538767 
    3520 1.559728e-19   -2274.2327 5.7828332e-10    37726.045    3.1868027    33.538767 
    3530 1.6362129e-19   -2274.2327 3.1697753e-11    37726.045    3.1868027    33.538767 
    3540 1.7039874e-19   -2274.2327 -5.9888316e-10    37726.045    3.1868027    33.538767 
    3550 1.7617973e-19   -2274.2327 1.1556007e-10    37726.045    3.1868027    33.538767 
    3560 1.808722e-19   -2274.2327 5.3616608e-10    37726.045    3.1868027    33.538767 
    3570 1.8439625e-19   -2274.2327 -2.6204243e-10    37726.045    3.1868027    33.538767 
    3580 1.8671127e-19   -2274.2327 -4.3078289e-10    37726.045    3.1868027    33.538767 
    3590 1.8782264e-19   -2274.2327 4.1003287e-10    37726.045    3.1868027    33.538767 
    3600 1.877794e-19   -2274.2327 2.8390589e-10    37726.045    3.1868027    33.538767 
    3610 1.8667397e-19   -2274.2327 -5.5697545e-10    37726.045    3.1868027    33.538767 
    3620 1.8463869e-19   -2274.2327 -5.2556351e-11    37726.045    3.1868027    33.538767 
    3630 1.8184498e-19   -2274.2327 6.2034101e-10    37726.045    3.1868027    33.538767 
    3640 1.7851399e-19   -2274.2327 -2.6258848e-10    37726.045    3.1868027    33.538767 
    3650 1.7490707e-19   -2274.2327 -4.728043e-10    37726.045    3.1868027    33.538767 
    3660 1.7132373e-19   -2274.2327 4.5201752e-10    37726.045    3.1868027    33.538767 
    3670 1.6808081e-19   -2274.2327 2.8381539e-10    37726.045    3.1868027    33.538767 
    3680 1.6552039e-19   -2274.2327 -6.4075122e-10    37726.045    3.1868027    33.538767 
    3690 1.6399362e-19   -2274.2327 3.1478814e-11    37726.045    3.1868027    33.538767 
    3700 1.6384548e-19   -2274.2327 6.2033714e-10    37726.045    3.1868027    33.538767 
    3710 1.6541243e-19   -2274.2327 -3.4650049e-10    37726.045    3.1868027    33.538767 
    3720 1.6900929e-19   -2274.2327 -4.3059051e-10    37726.045    3.1868027    33.538767 
    3730 1.7491766e-19   -2274.2327 5.3585956e-10    37726.045    3.1868027    33.538767 
    3740 1.8337304e-19   -2274.2327 1.9964612e-10    37726.045    3.1868027    33.538767 
    3750 1.9455895e-19   -2274.2327 -5.986939e-10    37726.045    3.1868027    33.538767 
    3760 2.0859998e-19   -2274.2327 3.115572e-11    37726.045    3.1868027    33.538767 
    3770 2.255517e-19   -2274.2327 5.7833143e-10    37726.045    3.1868027    33.538767 
    3780 2.4539799e-19   -2274.2327 -3.0492464e-10    37726.045    3.1868027    33.538767 
    3790 2.680467e-19   -2274.2327 -4.7280401e-10    37726.045    3.1868027    33.538767 
    3800 2.9332608e-19   -2274.2327 5.7842373e-10    37726.045    3.1868027    33.538767 
    3810 3.2098639e-19   -2274.2327 1.9961696e-10    37726.045    3.1868027    33.538767 
    3820 3.5070514e-19   -2274.2327 -6.4069099e-10    37726.045    3.1868027    33.538767 
    3830 3.8209666e-19   -2274.2327 1.5754913e-10    37726.045    3.1868027    33.538767 
    3840 4.1473723e-19   -2274.2327 5.3588188e-10    37726.045    3.1868027    33.538767 
    3850 4.4814668e-19   -2274.2327 -3.4673348e-10    37726.045    3.1868027    33.538767 
    3860 4.818104e-19   -2274.2327 -3.8886814e-10    37726.045    3.1868027    33.538767 
    3870 5.1519732e-19   -2274.2327 5.3576481e-10    37726.045    3.1868027    33.538767 
    3880 5.4779012e-19   -2274.2327 1.577375e-10    37726.045    3.1868027    33.538767 
    3890 5.790909e-19   -2274.2327 -6.4078288e-10    37726.045    3.1868027    33.538767 
    3900 6.0863327e-19   -2274.2327 2.0008338e-10    37726.045    3.1868027    33.538767 
    3910 6.360079e-19   -2274.2327 5.3572331e-10    37726.045    3.1868027    33.538767 
    3920 6.6088071e-19   -2274.2327 -4.3092517e-10    37726.045    3.1868027    33.538767 
    3930 6.8299908e-19   -2274.2327 -3.4634415e-10    37726.045    3.1868027    33.538767 
    3940 7.022163e-19   -2274.2327 6.1951587e-10    37726.045    3.1868027    33.538767 
    3950 7.1849949e-19   -2274.2327 3.1323272e-11    37726.045    3.1868027    33.538767 
    3960 7.3193766e-19   -2274.2327 -6.4090845e-10    37726.045    3.1868027    33.538767 
    3970 7.427387e-19   -2274.2327 3.2560582e-10    37726.045    3.1868027    33.538767 
    3980 7.5122107e-19   -2274.2327 4.939469e-10    37726.045    3.1868027    33.538767 
    3990 7.5782676e-19   -2274.2327 -5.5696874e-10    37726.045    3.1868027    33.538767 
    4000 7.6310243e-19   -2274.2327 -2.203396e-10    37726.045    3.1868027    33.538767 
    4010 7.6769669e-19   -2274.2327 6.2016374e-10    37726.045    3.1868027    33.538767 
    4020 7.7234708e-19   -2274.2327 -1.3672273e-10    37726.045    3.1868027    33.538767 
    4030 7.7782918e-19   -2274.2327 -5.5726984e-10    37726.045    3.1868027    33.538767 
    4040 7.8496531e-19   -2274.2327 4.0955889e-10    37726.045    3.1868027    33.538767 
    4050 7.9460002e-19   -2274.2327 3.6806795e-10    37726.045    3.1868027    33.538767 
    4060 8.0756928e-19   -2274.2327 -6.407996e-10    37726.045    3.1868027    33.538767 
    4070 8.2467728e-19   -2274.2327 -5.2704124e-11    37726.045    3.1868027    33.538767 
    4080 8.4666245e-19   -2274.2327 6.6245871e-10    37726.045    3.1868027    33.538767 
    4090 8.7418947e-19   -2274.2327 -3.0470362e-10    37726.045    3.1868027    33.538767 
    4100 9.0783375e-19   -2274.2327 -4.7272047e-10    37726.045    3.1868027    33.538767 
    4110 9.4807093e-19   -2274.2327 5.3583856e-10    37726.045    3.1868027    33.538767 
    4120 9.9526133e-19   -2274.2327 2.4158937e-10    37726.045    3.1868027    33.538767 
    4130 1.0496394e-18   -2274.2327 -6.4085664e-10    37726.045    3.1868027    33.538767 
    4140 1.1113328e-18   -2274.2327 1.1584037e-10    37726.045    3.1868027    33.538767 
    4150 1.1803622e-18   -2274.2327 5.7791269e-10    37726.045    3.1868027    33.538767 
    4160 1.2566572e-18   -2274.2327 -4.3078122e-10    37726.045    3.1868027    33.538767 
    4170 1.3400782e-18   -2274.2327 -3.8871752e-10    37726.045    3.1868027    33.538767 
    4180 1.4304408e-18   -2274.2327 6.2004817e-10    37726.045    3.1868027    33.538767 
    4190 1.5275584e-18   -2274.2327 7.3617146e-11    37726.045    3.1868027    33.538767 
    4200 1.6312638e-18   -2274.2327 -6.4084123e-10    37726.045    3.1868027    33.538767 
    4210 1.7414489e-18   -2274.2327 2.8359106e-10    37726.045    3.1868027    33.538767 
    4220 1.8581014e-18   -2274.2327 4.9418569e-10    37726.045    3.1868027    33.538767 
    4230 1.9813529e-18   -2274.2327 -5.1484513e-10    37726.045    3.1868027    33.538767 
    4240 2.1114978e-18   -2274.2327 -2.6275698e-10    37726.045    3.1868027    33.538767 
    4250 2.2490155e-18   -2274.2327 6.6212407e-10    37726.045    3.1868027    33.538767 
    4260 2.3945858e-18   -2274.2327 -9.4533292e-11    37726.045    3.1868027    33.538767 
    4270 2.5490919e-18   -2274.2327 -5.9867035e-10    37726.045    3.1868027    33.538767 
    4280 2.7136212e-18   -2274.2327 4.0956137e-10    37726.045    3.1868027    33.538767 
    4290 2.8894754e-18   -2274.2327 4.1001681e-10    37726.045    3.1868027    33.538767 
    4300 3.0781138e-18   -2274.2327 -5.9902736e-10    37726.045    3.1868027    33.538767 
    4310 3.2811231e-18   -2274.2327 -9.4237907e-11    37726.045    3.1868027    33.538767 
    4320 3.5001339e-18   -2274.2327 6.2013772e-10    37726.045    3.1868027    33.538767 
    4330 3.7367694e-18   -2274.2327 -2.6275873e-10    37726.045    3.1868027    33.538767 
    4340 3.9926058e-18   -2274.2327 -5.1480291e-10    37726.045    3.1868027    33.538767 
    4350 4.269012e-18   -2274.2327 4.9406808e-10    37726.045    3.1868027    33.538767 
    4360 4.5670806e-18   -2274.2327 2.8364478e-10    37726.045    3.1868027    33.538767 
    4370 4.887514e-18   -2274.2327 -6.8294151e-10    37726.045    3.1868027    33.538767 
    4380 5.2305337e-18   -2274.2327 7.3823888e-11    37726.045    3.1868027    33.538767 
    4390 5.5958086e-18   -2274.2327 6.1989484e-10    37726.045    3.1868027    33.538767 
    4400 5.9823332e-18   -2274.2327 -3.8901002e-10    37726.045    3.1868027    33.538767 
    4410 6.3883655e-18   -2274.2327 -3.8882844e-10    37726.045    3.1868027    33.538767 
    4420 6.8113915e-18   -2274.2327 5.779965e-10    37726.045    3.1868027    33.538767 
    4430 7.2480572e-18   -2274.2327 1.159057e-10    37726.045    3.1868027    33.538767 
    4440 7.6942197e-18   -2274.2327 -6.4056107e-10    37726.045    3.1868027    33.538767 
    4450 8.1449292e-18   -2274.2327 2.4186774e-10    37726.045    3.1868027    33.538767 
    4460 8.594516e-18   -2274.2327 5.3599576e-10    37726.045    3.1868027    33.538767 
    4470 9.0366853e-18   -2274.2327 -5.1506386e-10    37726.045    3.1868027    33.538767 
    4480 9.464673e-18   -2274.2327 -3.0471449e-10    37726.045    3.1868027    33.538767 
    4490 9.8714343e-18   -2274.2327 6.6159805e-10    37726.045    3.1868027    33.538767 
    4500 1.0249829e-17   -2274.2327 -5.2371886e-11    37726.045    3.1868027    33.538767 
    4510 1.0592891e-17   -2274.2327 -5.9882728e-10    37726.045    3.1868027    33.538767 
    4520 1.0894079e-17   -2274.2327 3.6795722e-10    37726.045    3.1868027    33.538767 
    4530 1.1147609e-17   -2274.2327 4.0997217e-10    37726.045    3.1868027    33.538767 
    4540 1.1348708e-17   -2274.2327 -5.5705021e-10    37726.045    3.1868027    33.538767 
    4550 1.1493942e-17   -2274.2327 -1.365602e-10    37726.045    3.1868027    33.538767 
    4560 1.1581525e-17   -2274.2327 6.6232354e-10    37726.045    3.1868027    33.538767 
    4570 1.1611571e-17   -2274.2327 -2.2073018e-10    37726.045    3.1868027    33.538767 
    4580 1.1586363e-17   -2274.2327 -5.5657317e-10    37726.045    3.1868027    33.538767 
    4590 1.1510533e-17   -2274.2327 4.9418598e-10    37726.045    3.1868027    33.538767 
    4600 1.1391171e-17   -2274.2327 3.2604805e-10    37726.045    3.1868027    33.538767 
    4610 1.1237943e-17   -2274.2327 -6.4110998e-10    37726.045    3.1868027    33.538767 
    4620 1.1063049e-17   -2274.2327 3.1454701e-11    37726.045    3.1868027    33.538767 
    4630 1.0881181e-17   -2274.2327 5.7816895e-10    37726.045    3.1868027    33.538767 
    4640 1.0709272e-17   -2274.2327 -3.464787e-10    37726.045    3.1868027    33.538767 
    4650 1.0566199e-17   -2274.2327 -4.3044245e-10    37726.045    3.1868027    33.538767 
    4660 1.0472468e-17   -2274.2327 5.7771286e-10    37726.045    3.1868027    33.538767 
    4670 1.044973e-17   -2274.2327 1.5802753e-10    37726.045    3.1868027    33.538767 
    4680 1.0520225e-17   -2274.2327 -6.4126026e-10    37726.045    3.1868027    33.538767 
    4690 1.0706126e-17   -2274.2327 1.5728774e-10    37726.045    3.1868027    33.538767 
    4700 1.1028911e-17   -2274.2327 5.7770713e-10    37726.045    3.1868027    33.538767 
    4710 1.1508558e-17   -2274.2327 -4.3119437e-10    37726.045    3.1868027    33.538767 
    4720 1.2162896e-17   -2274.2327 -3.467222e-10    37726.045    3.1868027    33.538767 
    4730 1.3006819e-17   -2274.2327 5.7816561e-10    37726.045    3.1868027    33.538767 
    4740 1.4051665e-17   -2274.2327 3.1400615e-11    37726.045    3.1868027    33.538767 
    4750 1.5304504e-17   -2274.2327 -6.4071136e-10    37726.045    3.1868027    33.538767 
    4760 1.6767586e-17   -2274.2327 3.2568916e-10    37726.045    3.1868027    33.538767 
    4770 1.8438008e-17   -2274.2327  4.94031e-10    37726.045    3.1868027    33.538767 
    4780 2.0307432e-17   -2274.2327 -5.564459e-10    37726.045    3.1868027    33.538767 
    4790 2.2361998e-17   -2274.2327 -2.6246379e-10    37726.045    3.1868027    33.538767 
    4800 2.4582409e-17   -2274.2327 7.0451009e-10    37726.045    3.1868027    33.538767 
    4810 2.6944296e-17   -2274.2327 -1.3662905e-10    37726.045    3.1868027    33.538767 
    4820 2.9418754e-17   -2274.2327 -6.4055511e-10    37726.045    3.1868027    33.538767 
    4830 3.1973121e-17   -2274.2327 4.9409802e-10    37726.045    3.1868027    33.538767 
    4840 3.457197e-17   -2274.2327 4.0999881e-10    37726.045    3.1868027    33.538767 
    4850 3.7178322e-17   -2274.2327 -6.8315562e-10    37726.045    3.1868027    33.538767 
    4860 3.9755014e-17   -2274.2327 -9.4647992e-11    37726.045    3.1868027    33.538767 
    4870 4.2266249e-17   -2274.2327 7.8803366e-10    37726.045    3.1868027    33.538767 
    4880 4.4679299e-17   -2274.2327 -2.2072295e-10    37726.045    3.1868027    33.538767 
    4890 4.6966134e-17   -2274.2327 -6.828118e-10    37726.045    3.1868027    33.538767 
    4900 4.9105185e-17   -2274.2327 4.9394912e-10    37726.045    3.1868027    33.538767 
    4910 5.1083034e-17   -2274.2327 4.9427123e-10    37726.045    3.1868027    33.538767 
    4920 5.2895931e-17   -2274.2327 -6.8303753e-10    37726.045    3.1868027    33.538767 
    4930 5.4551112e-17   -2274.2327 -2.2073958e-10    37726.045    3.1868027    33.538767 
    4940 5.6067945e-17   -2274.2327 7.8792333e-10    37726.045    3.1868027    33.538767 
    4950 5.7478659e-17   -2274.2327 -9.4350621e-11    37726.045    3.1868027    33.538767 
    4960 5.8828724e-17   -2274.2327 -7.2494728e-10    37726.045    3.1868027    33.538767 
    4970 6.0176762e-17   -2274.2327 3.6795466e-10    37726.045    3.1868027    33.538767 
    4980 6.1593965e-17   -2274.2327 6.1997841e-10    37726.045    3.1868027    33.538767 
    4990 6.3163056e-17   -2274.2327 -6.4119015e-10    37726.045    3.1868027    33.538767 
    5000 6.4976678e-17   -2274.2327 -3.8899594e-10    37726.045    3.1868027    33.538767 
    5010 6.713522e-17   -2274.2327 7.8810717e-10    37726.045    3.1868027    33.538767 
    5020 6.9744164e-17   -2274.2327 7.3716789e-11    37726.045    3.1868027    33.538767 
    5030 7.291106e-17   -2274.2327 -8.090403e-10    37726.045    3.1868027    33.538767 
    5040 7.6741908e-17   -2274.2327 1.9983881e-10    37726.045    3.1868027    33.538767 
    5050 8.1337413e-17   -2274.2327 7.4613503e-10    37726.045    3.1868027    33.538767 
    5060 8.6788953e-17   -2274.2327 -5.1493894e-10    37726.045    3.1868027    33.538767 
    5070 9.3174497e-17   -2274.2327 -5.1523685e-10    37726.045    3.1868027    33.538767 
    5080 1.0055451e-16   -2274.2327 7.4607179e-10    37726.045    3.1868027    33.538767 
    5090 1.0896816e-16   -2274.2327 2.4205481e-10    37726.045    3.1868027    33.538767 
    5100 1.1842992e-16   -2274.2327 -8.9295597e-10    37726.045    3.1868027    33.538767 
    5110 1.2892671e-16   -2274.2327 1.9984722e-10    37726.045    3.1868027    33.538767 
    5120 1.4041545e-16   -2274.2327 7.8837463e-10    37726.045    3.1868027    33.538767 
    5130 1.5282192e-16   -2274.2327 -5.1502142e-10    37726.045    3.1868027    33.538767 
    5140 1.6604049e-16   -2274.2327 -5.5709853e-10    37726.045    3.1868027    33.538767 
    5150 1.7993473e-16   -2274.2327 7.8802609e-10    37726.045    3.1868027    33.538767 
    5160 1.9433944e-16   -2274.2327 2.4161776e-10    37726.045    3.1868027    33.538767 
    5170 2.0906383e-16   -2274.2327 -8.9339866e-10    37726.045    3.1868027    33.538767 
    5180 2.2389631e-16   -2274.2327 2.0004362e-10    37726.045    3.1868027    33.538767 
    5190 2.3860981e-16   -2274.2327 7.8802195e-10    37726.045    3.1868027    33.538767 
    5200 2.5296909e-16   -2274.2327 -5.1480417e-10    37726.045    3.1868027    33.538767 
    5210 2.667386e-16   -2274.2327 -5.5675895e-10    37726.045    3.1868027    33.538767 
    5220 2.7969142e-16   -2274.2327 7.8832565e-10    37726.045    3.1868027    33.538767 
    5230 2.9161865e-16   -2274.2327 2.4186854e-10    37726.045    3.1868027    33.538767 
    5240 3.0233952e-16   -2274.2327 -8.931243e-10    37726.045    3.1868027    33.538767 
    5250 3.1171148e-16   -2274.2327 1.5769794e-10    37726.045    3.1868027    33.538767 
    5260 3.1963951e-16   -2274.2327 8.3031706e-10    37726.045    3.1868027    33.538767 
    5270 3.2608557e-16   -2274.2327 -5.1486497e-10    37726.045    3.1868027    33.538767 
    5280 3.3107666e-16   -2274.2327 -5.9849358e-10    37726.045    3.1868027    33.538767 
    5290 3.3471142e-16   -2274.2327 7.8827798e-10    37726.045    3.1868027    33.538767 
    5300 3.3716495e-16   -2274.2327 2.4213442e-10    37726.045    3.1868027    33.538767 
    5310 3.3869168e-16   -2274.2327 -9.3509643e-10    37726.045    3.1868027    33.538767 
    5320 3.3962559e-16   -2274.2327 1.9968601e-10    37726.045    3.1868027    33.538767 
    5330 3.4037765e-16   -2274.2327 8.7236817e-10    37726.045    3.1868027    33.538767 
    5340 3.4143063e-16   -2274.2327 -5.9897955e-10    37726.045    3.1868027    33.538767 
    5350 3.4333065e-16   -2274.2327 -6.4114976e-10    37726.045    3.1868027    33.538767 
    5360 3.4667577e-16   -2274.2327 9.1444846e-10    37726.045    3.1868027    33.538767 
    5370 3.5210165e-16   -2274.2327 2.8352548e-10    37726.045    3.1868027    33.538767 
    5380 3.6026446e-16   -2274.2327 -1.0193738e-09    37726.045    3.1868027    33.538767 
    5390 3.7182134e-16   -2274.2327 7.3506981e-11    37726.045    3.1868027    33.538767 
    5400 3.8740889e-16   -2274.2327 9.9867773e-10    37726.045    3.1868027    33.538767 
    5410 4.0762033e-16   -2274.2327 -4.3093216e-10    37726.045    3.1868027    33.538767 
    5420 4.3298137e-16   -2274.2327 -8.50993e-10    37726.045    3.1868027    33.538767 
    5430 4.6392674e-16   -2274.2327 7.4652323e-10    37726.045    3.1868027    33.538767 
    5440 5.0077708e-16   -2274.2327 5.7819695e-10    37726.045    3.1868027    33.538767 
    5450 5.4371746e-16   -2274.2327 -9.7672903e-10    37726.045    3.1868027    33.538767 
    5460 5.927784e-16   -2274.2327 -2.2047551e-10    37726.045    3.1868027    33.538767 
    5470 6.478204e-16   -2274.2327 1.0823976e-09    37726.045    3.1868027    33.538767 
    5480 7.0852286e-16   -2274.2327 -1.7783537e-10    37726.045    3.1868027    33.538767 
    5490 7.7437797e-16   -2274.2327 -9.7718919e-10    37726.045    3.1868027    33.538767 
    5500 8.4469047e-16   -2274.2327 5.3552405e-10    37726.045    3.1868027    33.538767 
    5510 9.1858381e-16   -2274.2327 7.4622328e-10    37726.045    3.1868027    33.538767 
    5520 9.9501305e-16   -2274.2327 -8.5131251e-10    37726.045    3.1868027    33.538767 
    5530 1.072785e-15   -2274.2327 -4.3078009e-10    37726.045    3.1868027    33.538767 
    5540 1.1505855e-15   -2274.2327 9.9835911e-10    37726.045    3.1868027    33.538767 
    5550 1.2270131e-15   -2274.2327 7.3930288e-11    37726.045    3.1868027    33.538767 
    5560 1.3006201e-15   -2274.2327 -1.0191882e-09    37726.045    3.1868027    33.538767 
    5570 1.369958e-15   -2274.2327 2.8361952e-10    37726.045    3.1868027    33.538767 
    5580 1.4336287e-15   -2274.2327  9.14273e-10    37726.045    3.1868027    33.538767 
    5590 1.4903388e-15   -2274.2327 -6.4091798e-10    37726.045    3.1868027    33.538767 
    5600 1.5389557e-15   -2274.2327 -6.8314856e-10    37726.045    3.1868027    33.538767 
    5610 1.5785644e-15   -2274.2327 9.1510065e-10    37726.045    3.1868027    33.538767 
    5620 1.608523e-15   -2274.2327 3.2600138e-10    37726.045    3.1868027    33.538767 
    5630 1.6285145e-15   -2274.2327 -1.0614005e-09    37726.045    3.1868027    33.538767 
    5640 1.6385936e-15   -2274.2327 3.1704861e-11    37726.045    3.1868027    33.538767 
    5650 1.6392265e-15   -2274.2327 9.9854273e-10    37726.045    3.1868027    33.538767 
    5660 1.6313211e-15   -2274.2327 -3.8844911e-10    37726.045    3.1868027    33.538767 
    5670 1.6162467e-15   -2274.2327 -8.5111967e-10    37726.045    3.1868027    33.538767 
    5680 1.5958413e-15   -2274.2327 7.0434421e-10    37726.045    3.1868027    33.538767 
    5690 1.5724059e-15   -2274.2327 5.7834919e-10    37726.045    3.1868027    33.538767 
    5700 1.5486836e-15   -2274.2327 -9.3502079e-10    37726.045    3.1868027    33.538767 
    5710 1.5278245e-15   -2274.2327 -2.625569e-10    37726.045    3.1868027    33.538767 
    5720 1.5133357e-15   -2274.2327 1.0822295e-09    37726.045    3.1868027    33.538767 
    5730 1.5090164e-15   -2274.2327 -9.4239267e-11    37726.045    3.1868027    33.538767 
    5740 1.5188807e-15   -2274.2327 -1.0191157e-09    37726.045    3.1868027    33.538767 
    5750 1.547068e-15   -2274.2327 4.1019268e-10    37726.045    3.1868027    33.538767 
    5760 1.5977439e-15   -2274.2327 8.7206079e-10    37726.045    3.1868027    33.538767 
    5770 1.6749939e-15   -2274.2327 -7.2492842e-10    37726.045    3.1868027    33.538767 
    5780 1.7827141e-15   -2274.2327 -6.408833e-10    37726.045    3.1868027    33.538767 
    5790 1.9244986e-15   -2274.2327 9.5671233e-10    37726.045    3.1868027    33.538767 
    5800 2.1035324e-15   -2274.2327 2.8419818e-10    37726.045    3.1868027    33.538767 
    5810 2.3224891e-15   -2274.2327 -1.1032019e-09    37726.045    3.1868027    33.538767 
    5820 2.5834393e-15   -2274.2327 1.1629373e-10    37726.045    3.1868027    33.538767 
    5830 2.8877737e-15   -2274.2327 1.0822806e-09    37726.045    3.1868027    33.538767 
    5840 3.2361428e-15   -2274.2327 -5.9839352e-10    37726.045    3.1868027    33.538767 
    5850 3.6284182e-15   -2274.2327 -8.0889918e-10    37726.045    3.1868027    33.538767 
    5860 4.0636759e-15   -2274.2327 9.5679119e-10    37726.045    3.1868027    33.538767 
    5870 4.5402053e-15   -2274.2327 4.5211627e-10    37726.045    3.1868027    33.538767 
    5880 5.0555446e-15   -2274.2327 -1.1874242e-09    37726.045    3.1868027    33.538767 
    5890 5.6065419e-15   -2274.2327 3.1949553e-11    37726.045    3.1868027    33.538767 
    5900 6.1894433e-15   -2274.2327 1.2088966e-09    37726.045    3.1868027    33.538767 
    5910 6.8000044e-15   -2274.2327 -5.1457592e-10    37726.045    3.1868027    33.538767 
    5920 7.4336237e-15   -2274.2327 -9.7708616e-10    37726.045    3.1868027    33.538767 
    5930 8.0854934e-15   -2274.2327 8.7249735e-10    37726.045    3.1868027    33.538767 
    5940 8.750764e-15   -2274.2327 6.6271491e-10    37726.045    3.1868027    33.538767 
    5950 9.4247168e-15   -2274.2327 -1.1452873e-09    37726.045    3.1868027    33.538767 
    5960 1.0102938e-14   -2274.2327 -2.2039038e-10    37726.045    3.1868027    33.538767 
    5970 1.0781488e-14   -2274.2327 1.292734e-09    37726.045    3.1868027    33.538767 
    5980 1.1457061e-14   -2274.2327 -2.6207009e-10    37726.045    3.1868027    33.538767 
    5990 1.2127124e-14   -2274.2327 -1.1873002e-09    37726.045    3.1868027    33.538767 
    6000 1.2790034e-14   -2274.2327 7.0459572e-10    37726.045    3.1868027    33.538767 
    6010 1.3445121e-14   -2274.2327 8.7241027e-10    37726.045    3.1868027    33.538767 
    6020 1.4092739e-14   -2274.2327 -1.0610969e-09    37726.045    3.1868027    33.538767 
    6030 1.4734275e-14   -2274.2327 -5.1473805e-10    37726.045    3.1868027    33.538767 
    6040 1.5372115e-14   -2274.2327 1.3769072e-09    37726.045    3.1868027    33.538767 
    6050 1.6009569e-14   -2274.2327 -5.197385e-11    37726.045    3.1868027    33.538767 
    6060 1.6650751e-14   -2274.2327 -1.3552064e-09    37726.045    3.1868027    33.538767 
    6070 1.7300416e-14   -2274.2327 6.2059186e-10    37726.045    3.1868027    33.538767 
    6080 1.7963773e-14   -2274.2327 1.1669411e-09    37726.045    3.1868027    33.538767 
    6090 1.8646254e-14   -2274.2327 -1.1027556e-09    37726.045    3.1868027    33.538767 
    6100 1.9353272e-14   -2274.2327 -7.6642984e-10    37726.045    3.1868027    33.538767 
    6110 2.0089969e-14   -2274.2327 1.4613568e-09    37726.045    3.1868027    33.538767 
    6120 2.0860959e-14   -2274.2327 2.0039019e-10    37726.045    3.1868027    33.538767 
    6130 2.1670095e-14   -2274.2327 -1.5653588e-09    37726.045    3.1868027    33.538767 
    6140 2.2520258e-14   -2274.2327 4.1048468e-10    37726.045    3.1868027    33.538767 
    6150 2.3413188e-14   -2274.2327 1.4192482e-09    37726.045    3.1868027    33.538767 
    6160 2.4349373e-14   -2274.2327 -9.7652632e-10    37726.045    3.1868027    33.538767 
    6170 2.5328002e-14   -2274.2327 -1.0184983e-09    37726.045    3.1868027    33.538767 
    6180   2.6347e-14   -2274.2327 1.3776043e-09    37726.045    3.1868027    33.538767 
    6190 2.7403146e-14   -2274.2327 4.9459765e-10    37726.045    3.1868027    33.538767 
    6200 2.8492287e-14   -2274.2327 -1.6069975e-09    37726.045    3.1868027    33.538767 
    6210 2.9609643e-14   -2274.2327 1.171297e-10    37726.045    3.1868027    33.538767 
    6220 3.0750206e-14   -2274.2327 1.6298357e-09    37726.045    3.1868027    33.538767 
    6230 3.1909226e-14   -2274.2327 -7.6605848e-10    37726.045    3.1868027    33.538767 
    6240 3.3082773e-14   -2274.2327 -1.2703542e-09    37726.045    3.1868027    33.538767 
    6250 3.4268358e-14   -2274.2327 1.2937826e-09    37726.045    3.1868027    33.538767 
    6260  3.54656e-14   -2274.2327 8.3099976e-10    37726.045    3.1868027    33.538767 
    6270 3.6676904e-14   -2274.2327 -1.690532e-09    37726.045    3.1868027    33.538767 
    6280 3.7908132e-14   -2274.2327 -1.7710809e-10    37726.045    3.1868027    33.538767 
    6290 3.9169237e-14   -2274.2327 1.7564895e-09    37726.045    3.1868027    33.538767 
    6300 4.0474819e-14   -2274.2327 -4.7109561e-10    37726.045    3.1868027    33.538767 
    6310 4.1844576e-14   -2274.2327 -1.5216451e-09    37726.045    3.1868027    33.538767 
    6320 4.3303612e-14   -2274.2327 1.0843828e-09    37726.045    3.1868027    33.538767 
    6330 4.4882585e-14   -2274.2327 1.0842997e-09    37726.045    3.1868027    33.538767 
    6340 4.6617643e-14   -2274.2327 -1.4799234e-09    37726.045    3.1868027    33.538767 
    6350 4.8550143e-14   -2274.2327 -5.5501482e-10    37726.045    3.1868027    33.538767 
    6360 5.0726131e-14   -2274.2327 1.7572134e-09    37726.045    3.1868027    33.538767 
    6370 5.3195571e-14   -2274.2327 -9.2603098e-11    37726.045    3.1868027    33.538767 
    6380 5.6011326e-14   -2274.2327 -1.8156403e-09    37726.045    3.1868027    33.538767 
    6390 5.9227899e-14   -2274.2327  8.32537e-10    37726.045    3.1868027    33.538767 
    6400 6.2899952e-14   -2274.2327 1.5050345e-09    37726.045    3.1868027    33.538767 
    6410 6.7080654e-14   -2274.2327 -1.4371835e-09    37726.045    3.1868027    33.538767 
    6420 7.1819871e-14   -2274.2327 -1.0171316e-09    37726.045    3.1868027    33.538767 
    6430 7.7162287e-14   -2274.2327 1.8413725e-09    37726.045    3.1868027    33.538767 
    6440 8.3145495e-14   -2274.2327 3.2803786e-10    37726.045    3.1868027    33.538767 
    6450 8.9798162e-14   -2274.2327 -1.9832729e-09    37726.045    3.1868027    33.538767 
    6460 9.7138324e-14   -2274.2327 4.1305983e-10    37726.045    3.1868027    33.538767 
    6470 1.0517192e-13   -2274.2327 1.841867e-09    37726.045    3.1868027    33.538767 
    6480 1.1389164e-13   -2274.2327 -1.1422111e-09    37726.045    3.1868027    33.538767 
    6490 1.232762e-13   -2274.2327 -1.4363905e-09    37726.045    3.1868027    33.538767 
    6500 1.3329012e-13   -2274.2327 1.716334e-09    37726.045    3.1868027    33.538767 
    6510 1.4388402e-13   -2274.2327 7.9150694e-10    37726.045    3.1868027    33.538767 
    6520 1.5499567e-13   -2274.2327 -1.9825425e-09    37726.045    3.1868027    33.538767 
    6530 1.6655157e-13   -2274.2327 -1.3322567e-10    37726.045    3.1868027    33.538767 
    6540 1.7846945e-13   -2274.2327 2.0109285e-09    37726.045    3.1868027    33.538767 
    6550 1.9066128e-13   -2274.2327 -5.5283824e-10    37726.045    3.1868027    33.538767 
    6560 2.0303709e-13   -2274.2327 -1.7715745e-09    37726.045    3.1868027    33.538767 
    6570 2.1550949e-13   -2274.2327 1.1288529e-09    37726.045    3.1868027    33.538767 
    6580 2.2799857e-13   -2274.2327 1.4237024e-09    37726.045    3.1868027    33.538767 
    6590 2.4043746e-13   -2274.2327 -1.6864876e-09    37726.045    3.1868027    33.538767 
    6600 2.5277805e-13   -2274.2327 -8.0385203e-10    37726.045    3.1868027    33.538767 
    6610 2.6499687e-13   -2274.2327 2.0131404e-09    37726.045    3.1868027    33.538767 
    6620 2.7710098e-13   -2274.2327 3.8097787e-11    37726.045    3.1868027    33.538767 
    6630 2.8913345e-13   -2274.2327 -2.0214627e-09    37726.045    3.1868027    33.538767 
    6640 3.0117844e-13   -2274.2327 6.6909377e-10    37726.045    3.1868027    33.538767 
    6650 3.1336541e-13   -2274.2327 1.7625896e-09    37726.045    3.1868027    33.538767 
    6660 3.2587241e-13   -2274.2327 -1.3893227e-09    37726.045    3.1868027    33.538767 
    6670 3.3892804e-13   -2274.2327 -1.2627286e-09    37726.045    3.1868027    33.538767 
    6680 3.5281206e-13   -2274.2327 1.9324047e-09    37726.045    3.1868027    33.538767 
    6690 3.6785424e-13   -2274.2327 5.0430987e-10    37726.045    3.1868027    33.538767 
    6700 3.8443152e-13   -2274.2327 -2.1437055e-09    37726.045    3.1868027    33.538767 
    6710 4.0296323e-13   -2274.2327 3.3701228e-10    37726.045    3.1868027    33.538767 
    6720 4.2390441e-13   -2274.2327 1.9766557e-09    37726.045    3.1868027    33.538767 
    6730 4.4773726e-13   -2274.2327 -1.0490957e-09    37726.045    3.1868027    33.538767 
    6740 4.7496074e-13   -2274.2327 -1.5941677e-09    37726.045    3.1868027    33.538767 
    6750 5.0607871e-13   -2274.2327 1.6428633e-09    37726.045    3.1868027    33.538767 
    6760 5.4158658e-13   -2274.2327 1.012489e-09    37726.045    3.1868027    33.538767 
    6770 5.8195717e-13   -2274.2327 -2.0553278e-09    37726.045    3.1868027    33.538767 
    6780 6.2762586e-13   -2274.2327 -2.0509258e-10    37726.045    3.1868027    33.538767 
    6790 6.7897582e-13   -2274.2327 2.1911179e-09    37726.045    3.1868027    33.538767 
    6800 7.3632372e-13   -2274.2327 -6.2491243e-10    37726.045    3.1868027    33.538767 
    6810 7.9990654e-13   -2274.2327 -1.9274059e-09    37726.045    3.1868027    33.538767 
    6820 8.6987021e-13   -2274.2327 1.3525116e-09    37726.045    3.1868027    33.538767 
    6830 9.4626069e-13   -2274.2327 1.4786714e-09    37726.045    3.1868027    33.538767 
    6840 1.029018e-12   -2274.2327 -1.9669759e-09    37726.045    3.1868027    33.538767 
    6850 1.1179741e-12   -2274.2327 -7.0494117e-10    37726.045    3.1868027    33.538767 
    6860 1.2128549e-12   -2274.2327 2.2383821e-09    37726.045    3.1868027    33.538767 
    6870 1.3132867e-12   -2274.2327 -7.2914657e-11    37726.045    3.1868027    33.538767 
    6880 1.4188082e-12   -2274.2327 -2.2991469e-09    37726.045    3.1868027    33.538767 
    6890 1.5288871e-12   -2274.2327 9.3830461e-10    37726.045    3.1868027    33.538767 
    6900 1.6429423e-12   -2274.2327 1.9911893e-09    37726.045    3.1868027    33.538767 
    6910 1.760371e-12   -2274.2327 -1.7482625e-09    37726.045    3.1868027    33.538767 
    6920 1.8805801e-12   -2274.2327 -1.3676381e-09    37726.045    3.1868027    33.538767 
    6930 2.003023e-12   -2274.2327 2.2916519e-09    37726.045    3.1868027    33.538767 
    6940 2.1272379e-12   -2274.2327 5.7088177e-10    37726.045    3.1868027    33.538767 
    6950 2.2528898e-12   -2274.2327 -2.5367846e-09    37726.045    3.1868027    33.538767 
    6960 2.3798132e-12   -2274.2327 4.0871366e-10    37726.045    3.1868027    33.538767 
    6970 2.5080547e-12   -2274.2327 2.4297522e-09    37726.045    3.1868027    33.538767 
    6980 2.6379131e-12   -2274.2327 -1.4331291e-09    37726.045    3.1868027    33.538767 
    6990 2.7699778e-12   -2274.2327 -1.8491291e-09    37726.045    3.1868027    33.538767 
    7000 2.9051601e-12   -2274.2327 2.0644018e-09    37726.045    3.1868027    33.538767 
    7010 3.0447197e-12   -2274.2327 1.1024313e-09    37726.045    3.1868027    33.538767 
    7020 3.1902818e-12   -2274.2327 -2.5073361e-09    37726.045    3.1868027    33.538767 
    7030 3.3438445e-12   -2274.2327 -1.0627712e-10    37726.045    3.1868027    33.538767 
    7040 3.507776e-12   -2274.2327 2.5891684e-09    37726.045    3.1868027    33.538767 
    7050 3.6847988e-12   -2274.2327 -9.3608769e-10    37726.045    3.1868027    33.538767 
    7060 3.8779616e-12   -2274.2327 -2.2753956e-09    37726.045    3.1868027    33.538767 
    7070 4.0905985e-12   -2274.2327 1.892218e-09    37726.045    3.1868027    33.538767 
    7080 4.3262752e-12   -2274.2327 1.5613177e-09    37726.045    3.1868027    33.538767 
    7090 4.5887233e-12   -2274.2327 -2.4679103e-09    37726.045    3.1868027    33.538767 
    7100 4.8817637e-12   -2274.2327 -5.7005192e-10    37726.045    3.1868027    33.538767 
    7110 5.2092216e-12   -2274.2327 2.7143912e-09    37726.045    3.1868027    33.538767 
    7120 5.5748347e-12   -2274.2327 -5.5834336e-10    37726.045    3.1868027    33.538767 
    7130 5.9821577e-12   -2274.2327 -2.4853776e-09    37726.045    3.1868027    33.538767 
    7140 6.4344676e-12   -2274.2327 1.6400713e-09    37726.045    3.1868027    33.538767 
    7150 6.934672e-12   -2274.2327 1.8568197e-09    37726.045    3.1868027    33.538767 
    7160 7.4852262e-12   -2274.2327 -2.3817252e-09    37726.045    3.1868027    33.538767 
    7170 8.0880631e-12   -2274.2327 -9.4562628e-10    37726.045    3.1868027    33.538767 
    7180  8.74454e-12   -2274.2327 2.7607275e-09    37726.045    3.1868027    33.538767 
    7190 9.4554077e-12   -2274.2327 -2.9980726e-10    37726.045    3.1868027    33.538767 
    7200 1.0220806e-11   -2274.2327 -2.6864863e-09    37726.045    3.1868027    33.538767 
    7210 1.1040292e-11   -2274.2327 1.4840574e-09    37726.045    3.1868027    33.538767 
    7220 1.1912895e-11   -2274.2327 2.1257058e-09    37726.045    3.1868027    33.538767 
    7230 1.283722e-11   -2274.2327 -2.444164e-09    37726.045    3.1868027    33.538767 
    7240 1.3811579e-11   -2274.2327 -1.0855067e-09    37726.045    3.1868027    33.538767 
    7250 1.4834166e-11   -2274.2327 2.8807654e-09    37726.045    3.1868027    33.538767 
    7260 1.5903274e-11   -2274.2327 -1.2912976e-10    37726.045    3.1868027    33.538767 
    7270 1.7017545e-11   -2274.2327 -2.8848345e-09    37726.045    3.1868027    33.538767 
    7280 1.8176252e-11   -2274.2327 1.4235476e-09    37726.045    3.1868027    33.538767 
    7290 1.9379617e-11   -2274.2327 2.4548023e-09    37726.045    3.1868027    33.538767 
    7300 2.0629149e-11   -2274.2327 -2.5637576e-09    37726.045    3.1868027    33.538767 
    7310 2.1927991e-11   -2274.2327 -1.2755458e-09    37726.045    3.1868027    33.538767 
    7320 2.3281289e-11   -2274.2327 3.1258811e-09    37726.045    3.1868027    33.538767 
    7330 2.4696537e-11   -2274.2327 -7.8500298e-11    37726.045    3.1868027    33.538767 
    7340 2.6183929e-11   -2274.2327 -3.1973134e-09    37726.045    3.1868027    33.538767 
    7350 2.7756669e-11   -2274.2327  1.50503e-09    37726.045    3.1868027    33.538767 
    7360 2.9431255e-11   -2274.2327 2.6360981e-09    37726.045    3.1868027    33.538767 
    7370 3.1227704e-11   -2274.2327 -2.6199547e-09    37726.045    3.1868027    33.538767 
    7380 3.3169728e-11   -2274.2327 -1.5273613e-09    37726.045    3.1868027    33.538767 
    7390 3.5284835e-11   -2274.2327 3.307748e-09    37726.045    3.1868027    33.538767 
    7400 3.7604349e-11   -2274.2327 7.3783698e-11    37726.045    3.1868027    33.538767 
    7410 4.0163354e-11   -2274.2327 -3.3696792e-09    37726.045    3.1868027    33.538767 
    7420 4.3000545e-11   -2274.2327 1.4264415e-09    37726.045    3.1868027    33.538767 
    7430 4.6157989e-11   -2274.2327 2.8608238e-09    37726.045    3.1868027    33.538767 
    7440 4.9680804e-11   -2274.2327 -2.6828906e-09    37726.045    3.1868027    33.538767 
    7450 5.3616752e-11   -2274.2327 -1.7520578e-09    37726.045    3.1868027    33.538767 
    7460 5.8015765e-11   -2274.2327 3.4248242e-09    37726.045    3.1868027    33.538767 
    7470 6.2929414e-11   -2274.2327 2.3726251e-10    37726.045    3.1868027    33.538767 
    7480 6.841033e-11   -2274.2327 -3.6224755e-09    37726.045    3.1868027    33.538767 
    7490 7.4511616e-11   -2274.2327 1.3885035e-09    37726.045    3.1868027    33.538767 
    7500 8.1286259e-11   -2274.2327 3.0809632e-09    37726.045    3.1868027    33.538767 
    7510 8.8786574e-11   -2274.2327 -2.7908134e-09    37726.045    3.1868027    33.538767 
    7520 9.7063714e-11   -2274.2327 -1.8498088e-09    37726.045    3.1868027    33.538767 
    7530 1.0616727e-10   -2274.2327 3.5512334e-09    37726.045    3.1868027    33.538767 
    7540 1.1614501e-10   -2274.2327 3.4075026e-10    37726.045    3.1868027    33.538767 
    7550 1.2704277e-10   -2274.2327 -3.7456155e-09    37726.045    3.1868027    33.538767 
    7560 1.3890451e-10   -2274.2327 1.2982058e-09    37726.045    3.1868027    33.538767 
    7570 1.5177265e-10   -2274.2327 3.2829749e-09    37726.045    3.1868027    33.538767 
    7580 1.6568861e-10   -2274.2327 -2.7901007e-09    37726.045    3.1868027    33.538767 
    7590 1.8069364e-10   -2274.2327 -2.0822319e-09    37726.045    3.1868027    33.538767 
    7600 1.9682989e-10   -2274.2327 3.7279032e-09    37726.045    3.1868027    33.538767 
    7610 2.1414184e-10   -2274.2327 5.1881655e-10    37726.045    3.1868027    33.538767 
    7620  2.32678e-10   -2274.2327 -4.0150289e-09    37726.045    3.1868027    33.538767 
    7630 2.5249289e-10   -2274.2327 1.267155e-09    37726.045    3.1868027    33.538767 
    7640 2.736493e-10   -2274.2327 3.5054419e-09    37726.045    3.1868027    33.538767 
    7650 2.9622084e-10   -2274.2327 -2.7626419e-09    37726.045    3.1868027    33.538767 
    7660 3.2029468e-10   -2274.2327 -2.3184415e-09    37726.045    3.1868027    33.538767 
    7670 3.459745e-10   -2274.2327 3.7468201e-09    37726.045    3.1868027    33.538767 
    7680 3.7338357e-10   -2274.2327 8.0616365e-10    37726.045    3.1868027    33.538767 
    7690 4.0266794e-10   -2274.2327 -4.2014709e-09    37726.045    3.1868027    33.538767 
    7700 4.3399966e-10   -2274.2327 1.0810386e-09    37726.045    3.1868027    33.538767 
    7710 4.6757996e-10   -2274.2327 3.8360609e-09    37726.045    3.1868027    33.538767 
    7720 5.036424e-10   -2274.2327 -2.7450511e-09    37726.045    3.1868027    33.538767 
    7730 5.4245584e-10   -2274.2327 -2.647021e-09    37726.045    3.1868027    33.538767 
    7740 5.8432726e-10   -2274.2327 3.9213245e-09    37726.045    3.1868027    33.538767 
    7750 6.2960432e-10   -2274.2327 9.8667141e-10    37726.045    3.1868027    33.538767 
    7760 6.7867766e-10   -2274.2327 -4.3450972e-09    37726.045    3.1868027    33.538767 
    7770 7.3198297e-10   -2274.2327 9.1494168e-10    37726.045    3.1868027    33.538767 
    7780 7.9000269e-10   -2274.2327 4.0723553e-09    37726.045    3.1868027    33.538767 
    7790 8.5326751e-10   -2274.2327 -2.6885623e-09    37726.045    3.1868027    33.538767 
    7800 9.2235756e-10   -2274.2327 -2.9737556e-09    37726.045    3.1868027    33.538767 
    7810 9.9790346e-10   -2274.2327 3.9755641e-09    37726.045    3.1868027    33.538767 
    7820 1.0805872e-09   -2274.2327 1.3908211e-09    37726.045    3.1868027    33.538767 
    7830 1.1711433e-09   -2274.2327 -4.6729769e-09    37726.045    3.1868027    33.538767 
    7840 1.2703592e-09   -2274.2327 5.8572558e-10    37726.045    3.1868027    33.538767 
    7850 1.3790773e-09   -2274.2327 4.4765071e-09    37726.045    3.1868027    33.538767 
    7860 1.4981963e-09   -2274.2327 -2.4514869e-09    37726.045    3.1868027    33.538767 
    7870 1.6286733e-09   -2274.2327 -3.4616254e-09    37726.045    3.1868027    33.538767 
    7880 1.7715273e-09   -2274.2327 4.0191884e-09    37726.045    3.1868027    33.538767 
    7890 1.9278432e-09   -2274.2327 1.7568932e-09    37726.045    3.1868027    33.538767 
    7900 2.0987768e-09   -2274.2327 -4.7712227e-09    37726.045    3.1868027    33.538767 
    7910 2.285562e-09   -2274.2327 3.3513742e-10    37726.045    3.1868027    33.538767 
    7920 2.4895193e-09   -2274.2327 4.732061e-09    37726.045    3.1868027    33.538767 
    7930 2.7120657e-09   -2274.2327 -2.2819326e-09    37726.045    3.1868027    33.538767 
    7940 2.9547272e-09   -2274.2327 -3.6251456e-09    37726.045    3.1868027    33.538767 
    7950 3.2191534e-09   -2274.2327 3.9158999e-09    37726.045    3.1868027    33.538767 
    7960 3.5071345e-09   -2274.2327 2.1188036e-09    37726.045    3.1868027    33.538767 
    7970 3.8206205e-09   -2274.2327 -4.7921033e-09    37726.045    3.1868027    33.538767 
    7980 4.1617435e-09   -2274.2327 -2.1506292e-11    37726.045    3.1868027    33.538767 
    7990 4.5328416e-09   -2274.2327 4.9786889e-09    37726.045    3.1868027    33.538767 
    8000 4.9364871e-09   -2274.2327 -1.8717041e-09    37726.045    3.1868027    33.538767 
    8010 5.3755154e-09   -2274.2327 -4.026315e-09    37726.045    3.1868027    33.538767 
    8020 5.8530583e-09   -2274.2327 3.7961243e-09    37726.045    3.1868027    33.538767 
    8030 6.3725787e-09   -2274.2327 2.6687367e-09    37726.045    3.1868027    33.538767 
    8040 6.9379082e-09   -2274.2327 -4.7303076e-09    37726.045    3.1868027    33.538767 
    8050 7.5532871e-09   -2274.2327 -4.623777e-10    37726.045    3.1868027    33.538767 
    8060 8.2234073e-09   -2274.2327 5.292504e-09    37726.045    3.1868027    33.538767 
    8070 8.9534564e-09   -2274.2327 -1.553018e-09    37726.045    3.1868027    33.538767 
    8080 9.7491656e-09   -2274.2327 -4.3586077e-09    37726.045    3.1868027    33.538767 
    8090 1.0616859e-08   -2274.2327 3.7693734e-09    37726.045    3.1868027    33.538767 
    8100 1.1563506e-08   -2274.2327 3.0763662e-09    37726.045    3.1868027    33.538767 
    8110 1.2596777e-08   -2274.2327 -4.7506043e-09    37726.045    3.1868027    33.538767 
    8120  1.37251e-08   -2274.2327 -6.5999682e-10    37726.045    3.1868027    33.538767 
    8130 1.4957724e-08   -2274.2327 5.4432699e-09    37726.045    3.1868027    33.538767 
    8140 1.6304785e-08   -2274.2327 -1.1739341e-09    37726.045    3.1868027    33.538767 
    8150 1.7777375e-08   -2274.2327 -4.5117568e-09    37726.045    3.1868027    33.538767 
    8160 1.9387621e-08   -2274.2327 3.6206837e-09    37726.045    3.1868027    33.538767 
    8170 2.1148768e-08   -2274.2327 3.5532837e-09    37726.045    3.1868027    33.538767 
    8180 2.3075271e-08   -2274.2327 -4.5764592e-09    37726.045    3.1868027    33.538767 
    8190 2.5182895e-08   -2274.2327 -9.4818469e-10    37726.045    3.1868027    33.538767 
    8200 2.7488828e-08   -2274.2327 5.7717577e-09    37726.045    3.1868027    33.538767 
    8210 3.0011809e-08   -2274.2327 -7.2154922e-10    37726.045    3.1868027    33.538767 
    8220 3.2772265e-08   -2274.2327 -4.602049e-09    37726.045    3.1868027    33.538767 
    8230 3.5792468e-08   -2274.2327 3.5805403e-09    37726.045    3.1868027    33.538767 
    8240 3.9096715e-08   -2274.2327 4.1632423e-09    37726.045    3.1868027    33.538767 
    8250 4.2711524e-08   -2274.2327 -4.2547636e-09    37726.045    3.1868027    33.538767 
    8260 4.6665855e-08   -2274.2327 -1.1561971e-09    37726.045    3.1868027    33.538767 
    8270 5.0991359e-08   -2274.2327 6.1276603e-09    37726.045    3.1868027    33.538767 
    8280 5.5722657e-08   -2274.2327 1.1528026e-10    37726.045    3.1868027    33.538767 
    8290 6.089765e-08   -2274.2327 -4.5793278e-09    37726.045    3.1868027    33.538767 
    8300 6.6557861e-08   -2274.2327 3.5714349e-09    37726.045    3.1868027    33.538767 
    8310 7.2748816e-08   -2274.2327 5.1415075e-09    37726.045    3.1868027    33.538767 
    8320 7.952047e-08   -2274.2327 -3.7557807e-09    37726.045    3.1868027    33.538767 
    8330 8.6927668e-08   -2274.2327 -1.2946886e-09    37726.045    3.1868027    33.538767 
    8340 9.5030656e-08   -2274.2327 7.0190525e-09    37726.045    3.1868027    33.538767 
    8350 1.0389564e-07   -2274.2327 1.1285098e-09    37726.045    3.1868027    33.538767 
    8360 1.1359542e-07   -2274.2327 -4.4767302e-09    37726.045    3.1868027    33.538767 
    8370 1.2421001e-07   -2274.2327 4.0630384e-09    37726.045    3.1868027    33.538767 
    8380 1.3582741e-07   -2274.2327 6.5200099e-09    37726.045    3.1868027    33.538767 
    8390 1.4854439e-07   -2274.2327 -2.8646245e-09    37726.045    3.1868027    33.538767 
    8400 1.6246735e-07   -2274.2327 -1.1302336e-09    37726.045    3.1868027    33.538767 
    8410 1.7771325e-07   -2274.2327 8.0148174e-09    37726.045    3.1868027    33.538767 
    8420 1.9441062e-07   -2274.2327 2.7255613e-09    37726.045    3.1868027    33.538767 
    8430 2.1270069e-07   -2274.2327 -3.7920074e-09    37726.045    3.1868027    33.538767 
    8440 2.3273858e-07   -2274.2327 4.7760676e-09    37726.045    3.1868027    33.538767 
    8450 2.5469459e-07   -2274.2327 8.3964466e-09    37726.045    3.1868027    33.538767 
    8460 2.7875565e-07   -2274.2327 -1.3025613e-09    37726.045    3.1868027    33.538767 
    8470 3.0512685e-07   -2274.2327 -2.0933981e-10    37726.045    3.1868027    33.538767 
    8480 3.3403316e-07   -2274.2327 9.8980178e-09    37726.045    3.1868027    33.538767 
    8490 3.6572126e-07   -2274.2327 5.2326639e-09    37726.045    3.1868027    33.538767 
    8500 4.0046158e-07   -2274.2327 -2.1471111e-09    37726.045    3.1868027    33.538767 
    8510 4.3855057e-07   -2274.2327 6.7161701e-09    37726.045    3.1868027    33.538767 
    8520 4.8031312e-07   -2274.2327 1.1463119e-08    37726.045    3.1868027    33.538767 
    8530 5.2610526e-07   -2274.2327 1.6126001e-09    37726.045    3.1868027    33.538767 
    8540 5.7631718e-07   -2274.2327 2.3936423e-09    37726.045    3.1868027    33.538767 
    8550 6.3137652e-07   -2274.2327 1.3353057e-08    37726.045    3.1868027    33.538767 
    8560 6.9175201e-07   -2274.2327 9.559111e-09    37726.045    3.1868027    33.538767 
    8570 7.5795748e-07   -2274.2327 1.7333641e-09    37726.045    3.1868027    33.538767 
[...]
  219050    101.97227   -1728.9729    165.60074    44309.915    2.7132858    35.386176 
  219060    102.06186   -1728.4171     180.0945    44291.619    2.7144066    35.381305 
  219070    102.12028   -1728.5731    187.70892     44282.51     2.714965     35.37888 
  219080    102.15402   -1727.7455    193.33334    44282.831    2.7149453    35.378965 
  219090    102.16806   -1727.1806    193.04018    44292.699    2.7143404    35.381593 
  219100    102.16554   -1726.1753    189.00385    44311.999    2.7131582    35.386731 
  219110    102.14515   -1725.7316    178.39081    44340.375    2.7114218    35.394283 
  219120    102.10287   -1725.1228    163.78316    44377.213    2.7091711    35.404082 
  219130    102.03865   -1724.5645    145.03295    44421.694    2.7064583    35.415907 
  219140    101.94815   -1723.9658    123.01093    44472.791    2.7033487    35.429482 
  219150    101.83089   -1722.9527    99.513334     44529.33    2.6999163    35.444489 
  219160    101.68298   -1722.0032    73.778393    44590.051    2.6962396    35.460593 
  219170    101.50187   -1720.9616    47.006556    44653.603    2.6924023    35.477431 
  219180    101.28355   -1720.0141    19.388175    44718.572    2.6884906    35.494629 
  219190     101.0223   -1719.6155   -9.7016049    44783.526    2.6845912    35.511806 
  219200    100.71068   -1719.1087   -37.554343    44846.981    2.6807927    35.528571 
  219210    100.34566   -1718.4164   -63.260025    44907.506    2.6771797    35.544546 
  219220    99.924621   -1717.6553   -86.595551    44963.817    2.6738269    35.559397 
  219230    99.448246   -1717.0182    -107.6407    45014.768    2.6708004    35.572824 
  219240    98.924388    -1716.342   -125.46736    45059.346    2.6681582    35.584562 
  219250    98.357963   -1715.7673   -140.15353    45096.716    2.6659472    35.594397 
  219260    97.763366   -1714.7885   -149.92852    45126.262    2.6642017    35.602169 
  219270    97.154102   -1713.8981   -156.11785     45147.61    2.6629419    35.607782 
  219280    96.546745   -1713.5425   -159.99194    45160.569    2.6621778    35.611188 
  219290    95.960801   -1712.9946   -159.39703    45165.094    2.6619111    35.612378 
  219300    95.420158   -1712.4484   -155.01631    45161.348    2.6621318    35.611393 
  219310    94.945367   -1712.4595   -148.72231    45149.714    2.6628178    35.608335 
  219320    94.558405    -1711.795   -137.11112    45130.699    2.6639397    35.603336 
  219330    94.278751    -1711.428   -123.44047    45105.014    2.6654567     35.59658 
  219340    94.127651   -1711.2294   -107.72281    45073.495    2.6673206    35.588286 
  219350    94.125845   -1711.4127   -91.002924    45037.053    2.6694789    35.578693 
  219360    94.291151   -1711.6903   -72.842962    44996.662    2.6718751    35.568054 
  219370    94.640143   -1712.2164   -54.111509    44953.317    2.6744514    35.556629 
  219380    95.178639   -1712.6841   -34.315219     44908.04    2.6771478    35.544688 
  219390    95.902351   -1713.1294   -14.016886    44861.894    2.6799016    35.532508 
  219400    96.792456   -1713.4714    6.5410549    44815.918    2.6826509    35.520366 
  219410    97.807833   -1714.4158    24.685355    44771.135    2.6853343    35.508531 
  219420    98.892395   -1715.5545    41.068961    44728.451    2.6878968    35.497243 
  219430    99.984072   -1716.2635     57.00428    44688.664    2.6902899    35.486714 
  219440    101.02929   -1717.6881    68.525261    44652.478    2.6924701    35.477134 
  219450    101.99539   -1718.6169    78.908817    44620.436    2.6944036    35.468645 
  219460    102.86609   -1719.3201     87.11856    44592.954    2.6960641    35.461362 
  219470     103.6317   -1720.6101    90.622821    44570.331    2.6974326    35.455364 
  219480    104.28706   -1721.6195    92.136076    44552.663    2.6985023    35.450679 
  219490     104.8235   -1722.4508    91.533622    44539.934    2.6992735    35.447302 
  219500    105.23151   -1723.1327    88.962308    44532.023     2.699753    35.445204 
  219510    105.50393   -1723.9513    83.815023     44528.69    2.6999551    35.444319 
  219520    105.64014   -1724.8197    76.613574    44529.601    2.6998999    35.444561 
  219530    105.64419    -1725.197    69.236086    44534.348    2.6996121     35.44582 
  219540    105.52549   -1725.6103    60.319611    44542.496    2.6991182    35.447982 
  219550    105.29386   -1726.0906    50.019136    44553.557    2.6984481    35.450916 
  219560    104.96158   -1726.6175    38.710188    44566.975    2.6976357    35.454474 
  219570    104.53873   -1726.8115    27.910753    44582.164    2.6967166    35.458502 
  219580    104.03017   -1727.1282    16.651741    44598.547     2.695726    35.462845 
  219590     103.4449    -1727.019     7.029515    44615.555    2.6946984    35.467352 
  219600    102.79054   -1726.9354   -1.9246294    44632.696    2.6936635    35.471894 
  219610    102.07707   -1726.6494    -9.193776    44649.533    2.6926477    35.476354 
  219620    101.31626   -1726.6088   -15.892263    44665.689    2.6916737    35.480632 
  219630    100.52414   -1725.8841   -19.085694    44680.858    2.6907599    35.484648 
  219640    99.716448   -1724.7362   -19.579549    44694.891    2.6899151    35.488362 
  219650    98.916947   -1723.7995   -19.402858     44707.76    2.6891408    35.491768 
  219660    98.146203   -1722.8232   -18.007838    44719.508    2.6884344    35.494877 
  219670    97.426696   -1721.2213   -13.890108    44730.232    2.6877898    35.497714 
  219680    96.783997   -1719.9892   -10.349623    44740.125    2.6871955    35.500331 
  219690    96.240234   -1718.7133   -6.4582185     44749.39    2.6866391    35.502781 
  219700    95.816844   -1717.8869   -3.9935195    44758.227    2.6861087    35.505118 
  219710    95.533382   -1716.8931   -1.3325069    44766.767    2.6855962    35.507376 
  219720    95.405757   -1716.4326  -0.76689332    44775.134    2.6850944    35.509588 
  219730    95.442154   -1715.7147 -0.039191887    44783.393    2.6845992    35.511771 
  219740    95.643801   -1714.8926   0.33665867    44791.576    2.6841088    35.513934 
  219750    96.005225   -1715.0408    -2.857107    44799.676    2.6836235    35.516074 
  219760    96.511426   -1715.2532   -6.7945817    44807.559    2.6831513    35.518158 
  219770     97.14154   -1715.3804   -10.868953    44815.032    2.6827039    35.520132 
  219780    97.870741   -1715.9372   -16.435945    44821.873    2.6822945    35.521939 
  219790    98.669946   -1716.4809    -21.95678    44827.819    2.6819387     35.52351 
  219800    99.502128   -1717.0707   -27.420451    44832.601    2.6816526    35.524773 
  219810    100.33403   -1717.8267   -32.997074    44835.945    2.6814526    35.525656 
  219820    101.13751   -1718.8781   -38.888506     44837.58    2.6813549    35.526088 
  219830    101.88652   -1719.7628   -43.530565    44837.235    2.6813754    35.525997 
  219840    102.55937   -1720.2639   -46.120842    44834.699    2.6815272    35.525327 
  219850     103.1419   -1721.0083   -48.417855    44829.846    2.6818174    35.524045 
  219860    103.62418   -1721.6911   -49.392693    44822.599     2.682251    35.522131 
  219870    103.99361   -1722.4602   -49.402089    44812.918    2.6828305    35.519573 
  219880    104.23902   -1723.4113   -48.671484    44800.811    2.6835555    35.516374 
  219890    104.35641   -1724.0396   -45.641563    44786.355    2.6844217    35.512554 
  219900    104.34638   -1724.1912   -39.862325    44769.727    2.6854187    35.508158 
  219910     104.2102   -1724.4699   -33.238877    44751.222    2.6865292    35.503265 
  219920    103.95746   -1725.0545     -26.4366    44731.177     2.687733    35.497964 
  219930     103.6009   -1725.4611   -18.166089     44709.95    2.6890091    35.492348 
  219940     103.1557    -1726.041   -9.7127337    44687.972    2.6903316    35.486531 
  219950    102.64371   -1726.1245   0.69039594    44665.707    2.6916727    35.480637 
  219960    102.08799   -1726.0964    11.602912    44643.666    2.6930016    35.474799 
  219970    101.51436    -1726.224    21.931581    44622.383     2.694286    35.469161 
  219980    100.94754   -1725.9135    33.189914    44602.377    2.6954945     35.46386 
  219990    100.40741   -1725.7917    43.198946    44584.185    2.6965943    35.459038 
  220000    99.910773   -1725.5276    52.688538    44568.317    2.6975545     35.45483 
  220010    99.465889    -1725.442    60.438681    44555.218    2.6983475    35.451357 
  220020    99.076798   -1725.4852    66.388545    44545.243    2.6989518    35.448711 
  220030    98.745242   -1725.0442     72.20124    44538.687     2.699349    35.446972 
  220040    98.470492   -1724.8338    75.537915      44535.8     2.699524    35.446206 
  220050    98.254746   -1724.9165    76.071674    44536.737    2.6994672    35.446454 
  220060     98.09875   -1724.8129     75.16139    44541.522    2.6991772    35.447724 
  220070    98.007532   -1724.5216    72.775517    44550.076     2.698659    35.449993 
  220080    97.986702   -1724.6083    67.215619    44562.243    2.6979222     35.45322 
  220090    98.039497   -1724.2321    61.098971    44577.748    2.6969838    35.457331 
  220100    98.166201   -1724.3621    51.626078    44596.264     2.695864     35.46224 
  220110    98.363162   -1723.9443    42.197118    44617.335    2.6945908    35.467824 
  220120    98.624945    -1723.934    30.213972    44640.453    2.6931954    35.473948 
  220130    98.938066   -1724.1617    16.542791    44665.014    2.6917144    35.480453 
  220140    99.286167   -1724.3539    2.4278539    44690.346    2.6901887     35.48716 
  220150    99.651706   -1724.6521   -12.089149    44715.731    2.6886614    35.493877 
  220160    100.01122   -1724.5202   -24.912885    44740.426    2.6871774     35.50041 
  220170    100.34338   -1724.2632   -36.508814    44763.772     2.685776    35.506584 
  220180    100.62846    -1724.605   -48.634551    44785.172    2.6844926    35.512241 
  220190    100.84507   -1724.7414   -58.483487     44804.04    2.6833621    35.517228 
  220200    100.97693   -1724.5902   -65.488321    44819.882    2.6824136    35.521413 
  220210    101.01352   -1724.5226   -70.531223     44832.34    2.6816682    35.524704 
  220220    100.94947   -1724.2302   -72.545585    44841.179    2.6811396    35.527039 
  220230    100.78788   -1724.0111   -72.383721    44846.302    2.6808334    35.528391 
  220240    100.53993   -1723.4672   -68.905145    44847.737    2.6807475    35.528771 
  220250    100.21888   -1722.6434   -62.425906    44845.673     2.680871    35.528225 
  220260    99.847621   -1721.9742    -54.53117    44840.446    2.6811835    35.526845 
  220270    99.452838   -1721.3367   -45.206745    44832.466    2.6816607    35.524737 
  220280     99.06661   -1720.7174   -34.820087    44822.214     2.682274    35.522029 
  220290    98.722481   -1719.3198   -21.428693    44810.249    2.6829902    35.518868 
  220300    98.449104   -1718.2502   -8.8524945    44797.248    2.6837689    35.515433 
  220310    98.274468    -1717.556    2.3255714    44783.855    2.6845716    35.511893 
  220320    98.220078   -1717.9294    9.6797767    44770.607    2.6853659    35.508391 
  220330    98.304528   -1717.9386    17.295055     44757.91    2.6861277    35.505034 
  220340    98.540303   -1717.4313    25.471815    44746.155    2.6868334    35.501925 
  220350    98.938326   -1717.7687    30.005273    44735.735    2.6874592     35.49917 
  220360    99.507439   -1717.9211    33.986243    44726.894    2.6879904    35.496831 
  220370    100.25032   -1718.4245    35.834463    44719.819    2.6884157    35.494959 
  220380    101.15969   -1718.8829    36.818438    44714.596    2.6887297    35.493577 
  220390    102.20694   -1719.2644    37.097842    44711.263    2.6889301    35.492695 
  220400    103.34175   -1719.8861    35.764634     44709.81    2.6890175    35.492311 
  220410    104.49056   -1720.4651    33.693563    44710.179    2.6889953    35.492408 
  220420    105.57274   -1720.9867    30.959353    44712.279    2.6888691    35.492964 
  220430    106.51774    -1721.488    27.532356    44715.976    2.6886467    35.493942 
  220440    107.27142   -1722.0041    23.443217    44721.095     2.688339    35.495297 
  220450     107.7983   -1722.2532    19.720657    44727.422    2.6879587     35.49697 
  220460    108.07817   -1722.0082     17.21628    44734.771    2.6875171    35.498914 
  220470    108.10492   -1721.6711    14.850768    44743.002    2.6870227    35.501092 
  220480    107.88532   -1721.7151    11.302263    44751.974     2.686484    35.503464 
  220490    107.43268   -1720.5576    11.372782     44761.56    2.6859087    35.505999 
  220500    106.76698   -1719.6444    10.668343    44771.735    2.6852982    35.508689 
  220510    105.91896   -1718.7132     9.920703    44782.463    2.6846549    35.511525 
  220520    104.93212   -1717.8315    8.8780754    44793.708     2.683981    35.514497 
  220530    103.85663   -1717.0098    7.4820754    44805.416    2.6832797    35.517591 
  220540    102.74954   -1716.3038    5.5785006    44817.522    2.6825549     35.52079 
  220550    101.66742   -1715.2966    4.4701946    44829.936     2.681812    35.524069 
  220560    100.66044   -1714.0606    3.9889361    44842.603    2.6810545    35.527415 
  220570    99.761095   -1713.0462    2.8056011    44855.481    2.6802847    35.530815 
  220580    98.988362   -1712.1661    1.1942138    44868.518     2.679506    35.534257 
  220590    98.346819   -1711.5995   -1.3842116    44881.629    2.6787232    35.537718 
  220600     97.83146   -1710.8822   -3.5490144    44894.706     2.677943    35.541169 
  220610     97.43696    -1710.198   -5.8535195    44907.634     2.677172     35.54458 
  220620    97.157875   -1709.5098   -8.1769231    44920.297    2.6764174    35.547921 
  220630     96.98418    -1709.479   -12.477872    44932.561    2.6756869    35.551156 
  220640    96.910435   -1709.1273   -15.735587    44944.221    2.6749927    35.554231 
  220650    96.929012   -1708.9913   -19.455821    44955.083    2.6743464    35.557095 
  220660    97.028437   -1708.7592   -22.605786    44964.974     2.673758    35.559702 
  220670    97.199494   -1708.6892    -25.84207    44973.727    2.6732377    35.562009 
  220680    97.429875    -1708.736   -28.918631    44981.173    2.6727952    35.563972 
  220690    97.711944     -1709.26   -32.790675    44987.147    2.6724402    35.565546 
  220700    98.037598   -1709.2702   -34.371288    44991.469    2.6721835    35.566685 
  220710    98.397644   -1709.4942   -35.757606    44994.034    2.6720312    35.567361 
  220720    98.781981   -1709.4796   -35.542187    44994.776    2.6719871    35.567557 
  220730    99.181839   -1709.4907   -34.498294    44993.704    2.6720508    35.567274 
  220740    99.588567   -1709.6954   -33.128657    44990.853    2.6722201    35.566523 
  220750    99.994963   -1709.7498   -30.425868     44986.31      2.67249    35.565326 
  220760    100.38847   -1710.4995   -28.968815    44980.195    2.6728533    35.563714 
  220770    100.75657   -1710.5791   -24.719806    44972.631    2.6733029     35.56172 
  220780    101.09024   -1710.8656   -20.373843    44963.817    2.6738269    35.559397 
  220790    101.38057   -1710.9326   -14.735508    44953.978    2.6744121    35.556803 
  220800    101.61982   -1710.8943   -8.2542084    44943.382    2.6750426    35.554009 
  220810    101.80194   -1711.0877   -2.0799669    44932.345    2.6756997    35.551099 
  220820    101.92208   -1710.9418    5.3338673    44921.196    2.6763638    35.548158 
  220830    101.98215   -1711.0299    12.083072      44910.3    2.6770131    35.545284 
  220840    101.98362   -1710.9396    19.186324    44900.043    2.6776246    35.542578 
  220850    101.92967   -1710.8514    25.881778    44890.788    2.6781767    35.540135 
  220860    101.82511   -1710.4324    32.951702    44882.868    2.6786493    35.538045 
  220870    101.67501   -1710.1611    38.730851    44876.633    2.6790215    35.536399 
  220880    101.49173   -1709.4782    44.693575    44872.395    2.6792745    35.535281 
  220890    101.28003   -1709.1089    48.442852    44870.447    2.6793908    35.534767 
  220900    101.04773   -1708.9536    50.102287    44870.984    2.6793587    35.534908 
  220910    100.80146   -1708.4465     51.23478    44874.093    2.6791731    35.535729 
  220920    100.54788   -1708.0584    50.312743    44879.833    2.6788304    35.537244 
  220930    100.28858   -1707.9089    46.899927    44888.184    2.6783321    35.539448 
  220940    100.02231   -1707.6487    42.052692    44898.994    2.6776872    35.542301 
  220950    99.741313   -1707.6513    34.734044     44912.01    2.6769112    35.545735 
  220960    99.433626   -1707.7103     25.73702    44926.875    2.6760255    35.549656 
  220970    99.089868   -1708.0562    14.650716    44943.121    2.6750581    35.553941 
  220980    98.705036    -1708.321    2.9444981    44960.189    2.6740426    35.558441 
  220990    98.280302   -1708.9613   -10.332303    44977.479    2.6730147    35.562998 
  221000    97.826367   -1709.6242   -23.646507    44994.309    2.6720148    35.567434 
  221010    97.361831    -1710.011    -35.62441    45010.006     2.671083    35.571569 
  221020    96.905122    -1710.778   -47.790159    45023.938    2.6702565    35.575239 
  221030    96.479406   -1710.9584   -56.836885    45035.499     2.669571    35.578284 
  221040    96.098194   -1711.5914   -65.554842    45044.185    2.6690562    35.580571 
  221050     95.77099   -1712.0547    -71.82755    45049.546    2.6687386    35.581982 
  221060     95.50412    -1712.421   -75.698792    45051.236    2.6686385    35.582427 
  221070    95.302596   -1712.6715   -77.021994    45049.034    2.6687689    35.581847 
  221080    95.169524   -1712.6898   -75.448427    45042.877    2.6691337    35.580226 
  221090    95.107996   -1713.0493   -72.754386    45032.824    2.6697296    35.577579 
  221100    95.122486   -1713.3197   -67.744401    45018.998    2.6705495    35.573938 
  221110     95.21683   -1713.2383   -59.772638    45001.639    2.6715797    35.569365 
  221120    95.395483   -1713.7967   -52.006388    44981.139    2.6727972    35.563963 
  221130    95.664173   -1714.3435   -42.708926    44957.924    2.6741773    35.557844 
  221140    96.025691   -1714.5153   -31.025669     44932.45    2.6756935    35.551126 
  221150    96.482524    -1713.978   -16.265047    44905.333    2.6773093    35.543973 
  221160    97.030792   -1714.8234   -5.0735371    44877.277     2.678983    35.536569 
  221170    97.664177   -1715.2714    7.5389767    44848.889    2.6806787    35.529075 
  221180    98.367546   -1715.5998    20.357954    44820.799    2.6823587    35.521656 
  221182    98.514887     -1715.65    22.913834    44815.276    2.6826893    35.520196 
Loop time of 36.932 on 1 procs for 100000 steps with 864 atoms

Performance: 233.943 ns/day, 0.103 hours/ns, 2707.678 timesteps/s
95.9% CPU use with 1 MPI tasks x no OpenMP threads

MPI task timing breakdown:
Section |  min time  |  avg time  |  max time  |%varavg| %total
---------------------------------------------------------------
Pair    | 30.762     | 30.762     | 30.762     |   0.0 | 83.29
Neigh   | 0.91695    | 0.91695    | 0.91695    |   0.0 |  2.48
Comm    | 0.94495    | 0.94495    | 0.94495    |   0.0 |  2.56
Output  | 0.16878    | 0.16878    | 0.16878    |   0.0 |  0.46
Modify  | 3.6634     | 3.6634     | 3.6634     |   0.0 |  9.92
Other   |            | 0.4761     |            |       |  1.29

Nlocal:    864 ave 864 max 864 min
Histogram: 1 0 0 0 0 0 0 0 0 0
Nghost:    1599 ave 1599 max 1599 min
Histogram: 1 0 0 0 0 0 0 0 0 0
Neighs:    18584 ave 18584 max 18584 min
Histogram: 1 0 0 0 0 0 0 0 0 0

Total # of neighbors = 18584
Ave neighs/atom = 21.5093
Neighbor list builds = 902
Dangerous builds = 0
Total wall time: 0:01:26
