LAMMPS (7 Aug 2019)
Lattice spacing in x,y,z = 5 5 5
Created orthogonal box = (0 0 0) to (25 25 25)
  1 by 1 by 1 MPI processor grid
Created 500 atoms
  create_atoms CPU = 0.0003829 secs
WARNING: Using 'neigh_modify every 1 delay 0 check yes' setting during minimization (../min.cpp:168)
Neighbor list info ...
  update every 1 steps, delay 0 steps, check yes
  max neighbors/atom: 2000, page size: 100000
  master list distance cutoff = 8
  ghost atom cutoff = 8
  binsize = 4, bins = 7 7 7
  1 neighbor lists, perpetual/occasional/extra = 1 0 0
  (1) pair lj/cut, perpetual
      attributes: half, newton on
      pair build: half/bin/atomonly/newton
      stencil: half/bin/3d/newton
      bin: standard
Setting up cg style minimization ...
  Unit style    : real
  Current step  : 0
WARNING: Energy due to 1 extra global DOFs will be included in minimizer energies
Per MPI rank memory allocation (min/avg/max) = 5.539 | 5.539 | 5.539 Mbytes
Step Temp PotEng Press Volume Density Lx 
       0            0   -122.46667    42953.781        15625    4.4527949           25 
      10            0   -151.54906    42047.338    15671.922    4.4394632       25.025 
      20            0   -180.07386    41157.658    15718.938    4.4261846        25.05 
      30            0   -208.05006    40284.436    15766.047     4.412959       25.075 
      40            0   -235.48655    39427.372    15813.251     4.399786         25.1 
      50            0   -262.39205    38586.169    15860.549    4.3866654       25.125 
      60            0   -288.77513    37760.541    15907.941    4.3735969        25.15 
      70            0   -314.64424    36950.202    15955.427    4.3605802       25.175 
      80            0   -340.00771    36154.874    16003.008    4.3476152         25.2 
      90            0    -364.8737    35374.285    16050.683    4.3347015       25.225 
     100            0   -389.25027    34608.166    16098.453    4.3218389        25.25 
     110            0   -413.14534    33856.254    16146.318    4.3090271       25.275 
     120            0   -436.56671     33118.29    16194.277    4.2962659         25.3 
     130            0   -459.52204    32394.021    16242.331    4.2835551       25.325 
     140            0   -482.01889    31683.198     16290.48    4.2708943        25.35 
     150            0   -504.06469    30985.577    16338.725    4.2582834       25.375 
     160            0   -525.66675    30300.919    16387.064    4.2457221         25.4 
     170            0   -546.83226    29628.987    16435.499    4.2332102       25.425 
     180            0    -567.5683    28969.551    16484.029    4.2207474        25.45 
     190            0   -587.88185    28322.385    16532.654    4.2083334       25.475 
     200            0   -607.77976    27687.265    16581.375    4.1959681         25.5 
     210            0   -627.26878    27063.974    16630.192    4.1836512       25.525 
     220            0   -646.35556    26452.298    16679.104    4.1713824        25.55 
     230            0   -665.04663    25852.025    16728.112    4.1591616       25.575 
     240            0   -683.34843    25262.949    16777.216    4.1469884         25.6 
     250            0   -701.26728    24684.867    16826.416    4.1348627       25.625 
     260            0   -718.80942    24117.582    16875.712    4.1227843        25.65 
     270            0   -735.98099    23560.896    16925.104    4.1107528       25.675 
     280            0   -752.78802    23014.619    16974.593    4.0987681         25.7 
     290            0   -769.23644    22478.562    17024.178    4.0868299       25.725 
     300            0   -785.33211     21952.54    17073.859    4.0749381        25.75 
     310            0   -801.08079    21436.373    17123.637    4.0630924       25.775 
     320            0   -816.48813    20929.881    17173.512    4.0512925         25.8 
     330            0   -831.55971    20432.891    17223.483    4.0395383       25.825 
     340            0   -846.30102     19945.23    17273.552    4.0278295        25.85 
     350            0   -860.71745     19466.73    17323.717    4.0161659       25.875 
     360            0   -874.81433    18997.225    17373.979    4.0045473         25.9 
     370            0   -888.59688    18536.554    17424.338    3.9929734       25.925 
     380            0   -902.07025    18084.557    17474.795    3.9814442        25.95 
     390            0    -915.2395    17641.077    17525.349    3.9699592       25.975 
     400            0   -928.10964    17205.961        17576    3.9585184           26 
     410            0   -940.68556    16779.058    17626.749    3.9471216       26.025 
     420            0    -952.9721    16360.219    17677.595    3.9357684        26.05 
     430            0   -964.97401      15949.3    17728.539    3.9244587       26.075 
     440            0   -976.69598    15546.158    17779.581    3.9131923         26.1 
     450            0   -988.14261    15150.652    17830.721     3.901969       26.125 
     460            0   -999.31844    14762.645    17881.958    3.8907886        26.15 
     470            0   -1010.2279    14382.001    17933.294    3.8796509       26.175 
     480            0   -1020.8755    14008.589    17984.728    3.8685556         26.2 
     490            0   -1031.2654    13642.278     18036.26    3.8575026       26.225 
     500            0    -1041.402    13282.939    18087.891    3.8464916        26.25 
     510            0   -1051.2894    12930.448     18139.62    3.8355226       26.275 
     520            0   -1060.9317    12584.681    18191.447    3.8245952         26.3 
     530            0   -1070.3331    12245.517    18243.373    3.8137092       26.325 
     540            0   -1079.4974    11912.837    18295.398    3.8028646        26.35 
     550            0   -1088.4288    11586.525    18347.521     3.792061       26.375 
     560            0   -1097.1309    11266.465    18399.744    3.7812983         26.4 
     570            0   -1105.6076    10952.546    18452.066    3.7705763       26.425 
     580            0   -1113.8627    10644.656    18504.486    3.7598948        26.45 
     590            0   -1121.8999    10342.688    18557.006    3.7492535       26.475 
     600            0   -1129.7228    10046.534    18609.625    3.7386525         26.5 
     610            0    -1137.335    9756.0905    18662.343    3.7280913       26.525 
     620            0     -1144.74    9471.2543    18715.161    3.7175699        26.55 
     630            0   -1151.9412    9191.9245    18768.079     3.707088       26.575 
     640            0   -1158.9421    8918.0022    18821.096    3.6966455         26.6 
     650            0   -1165.7461    8649.3899    18874.213    3.6862422       26.625 
     660            0   -1172.3564    8385.9921     18927.43    3.6758779        26.65 
     670            0   -1178.7763    8127.7151    18980.746    3.6655524       26.675 
     680            0   -1185.0091    7874.4666    19034.163    3.6552655         26.7 
     690            0   -1191.0577    7626.1562     19087.68    3.6450171       26.725 
     700            0   -1196.9255    7382.6951    19141.297     3.634807        26.75 
     710            0   -1202.6153     7143.996    19195.014     3.624635       26.775 
     720            0   -1208.1303    6909.9731    19248.832    3.6145009         26.8 
     730            0   -1213.4734    6680.5424     19302.75    3.6044045       26.825 
     740            0   -1218.6475    6455.6211    19356.769    3.5943457        26.85 
     750            0   -1223.6554    6235.1282    19410.889    3.5843243       26.875 
     760            0   -1228.5001    6018.9839    19465.109    3.5743401         26.9 
     770            0   -1233.1842    5807.1099     19519.43     3.564393       26.925 
     780            0   -1237.7105    5599.4293    19573.852    3.5544827        26.95 
     790            0   -1242.0818    5395.8667    19628.376    3.5446092       26.975 
     800            0   -1246.3006    5196.3478        19683    3.5347722           27 
     810            0   -1250.3695    5000.7998    19737.726    3.5249715       27.025 
     820            0   -1254.2913    4809.1513    19792.553     3.515207        27.05 
     830            0   -1258.0682    4621.3319    19847.481    3.5054786       27.075 
     840            0    -1261.703    4437.2727    19902.511     3.495786         27.1 
     850            0   -1265.1979    4256.9058    19957.643    3.4861292       27.125 
     860            0   -1268.5555    4080.1648    20012.876    3.4765079        27.15 
     870            0   -1271.7781    3906.9842    20068.211    3.4669219       27.175 
     880            0    -1274.868    3737.2998    20123.648    3.4573712         27.2 
     890            0   -1277.8276    3571.0487    20179.187    3.4478555       27.225 
     900            0    -1280.659    3408.1688    20234.828    3.4383747        27.25 
     910            0   -1283.3646    3248.5993    20290.571    3.4289286       27.275 
     920            0   -1285.9466    3092.2805    20346.417    3.4195171         27.3 
     930            0    -1288.407    2939.1536    20402.365      3.41014       27.325 
     940            0    -1290.748    2789.1611    20458.415    3.4007971        27.35 
     950            0   -1292.9718    2642.2463    20514.568    3.3914884       27.375 
     960            0   -1295.0803    2498.3536    20570.824    3.3822136         27.4 
     970            0   -1297.0756    2357.4284    20627.182    3.3729726       27.425 
     980            0   -1298.9598     2219.417    20683.644    3.3637652        27.45 
     990            0   -1300.7347    2084.2667    20740.208    3.3545913       27.475 
    1000            0   -1302.4023    1951.9257    20796.875    3.3454507         27.5 
    1010            0   -1303.9645    1822.3433    20853.645    3.3363433       27.525 
    1020            0   -1305.4232    1695.4695    20910.519     3.327269        27.55 
    1030            0   -1306.7803    1571.2551    20967.496    3.3182275       27.575 
    1040            0   -1308.0375    1449.6521    21024.576    3.3092187         27.6 
    1050            0   -1309.1966     1330.613     21081.76    3.3002425       27.625 
    1060            0   -1310.2594    1214.0915    21139.047    3.2912988        27.65 
    1070            0   -1311.2277    1100.0417    21196.438    3.2823873       27.675 
    1080            0   -1312.1031    988.41895    21253.933     3.273508         27.7 
    1090            0   -1312.8873    879.17906    21311.532    3.2646607       27.725 
    1100            0    -1313.582    772.27878    21369.234    3.2558453        27.75 
    1110            0   -1314.1888    667.67558    21427.041    3.2470615       27.775 
    1120            0   -1314.7094    565.32769    21484.952    3.2383093         27.8 
    1130            0   -1315.1451    465.19409    21542.967    3.2295886       27.825 
    1140            0   -1315.4978    367.23447    21601.087    3.2208991        27.85 
    1150            0   -1315.7688    271.40923    21659.311    3.2122408       27.875 
    1160            0   -1315.9596     177.6795    21717.639    3.2036134         27.9 
    1170            0   -1316.0718    86.007055    21776.072     3.195017       27.925 
    1180            0   -1316.1069 -0.0020174359    21832.203    3.1868025    27.948973 
    1182            0   -1316.1069 -3.3185726e-11    21832.202    3.1868027    27.948972 
Loop time of 0.436435 on 1 procs for 1182 steps with 500 atoms

98.5% CPU use with 1 MPI tasks x no OpenMP threads

Minimization stats:
  Stopping criterion = force tolerance
  Energy initial, next-to-last, final = 
        -122.466671221     -1316.10687571     -1316.10687571
  Force two-norm initial, final = 29364.2 4.76932e-11
  Force max component initial, final = 29364.2 2.83544e-11
  Final line search alpha, max atom move = 1 2.83544e-11
  Iterations, force evaluations = 1182 1185

MPI task timing breakdown:
Section |  min time  |  avg time  |  max time  |%varavg| %total
---------------------------------------------------------------
Pair    | 0.36663    | 0.36663    | 0.36663    |   0.0 | 84.01
Neigh   | 0.0059142  | 0.0059142  | 0.0059142  |   0.0 |  1.36
Comm    | 0.0093277  | 0.0093277  | 0.0093277  |   0.0 |  2.14
Output  | 0.0010331  | 0.0010331  | 0.0010331  |   0.0 |  0.24
Modify  | 0          | 0          | 0          |   0.0 |  0.00
Other   |            | 0.05353    |            |       | 12.27

Nlocal:    500 ave 500 max 500 min
Histogram: 1 0 0 0 0 0 0 0 0 0
Nghost:    1188 ave 1188 max 1188 min
Histogram: 1 0 0 0 0 0 0 0 0 0
Neighs:    13500 ave 13500 max 13500 min
Histogram: 1 0 0 0 0 0 0 0 0 0

Total # of neighbors = 13500
Ave neighs/atom = 27
Neighbor list builds = 10
Dangerous builds = 0
Setting up Verlet run ...
  Unit style    : real
  Current step  : 1182
  Time step     : 1
Per MPI rank memory allocation (min/avg/max) = 4.414 | 4.414 | 4.414 Mbytes
Step Temp PotEng Press Volume Density Lx 
    1182            0   -1316.1069 -3.3185726e-11    21832.202    3.1868027    27.948972 
    1190 1.5768179e-25   -1316.1069 -2.9597205e-11    21832.202    3.1868027    27.948972 
    1200 8.1462742e-25   -1316.1069 3.3200255e-11    21832.202    3.1868027    27.948972 
    1210 2.0160196e-24   -1316.1069 3.3200255e-11    21832.202    3.1868027    27.948972 
    1220 3.7801949e-24   -1316.1069 3.3200255e-11    21832.202    3.1868027    27.948972 
    1230 6.1271893e-24   -1316.1069 3.3200255e-11    21832.202    3.1868027    27.948972 
    1240 9.0884148e-24   -1316.1069 -1.8693388e-11    21832.202    3.1868027    27.948972 
    1250 1.2743097e-23   -1316.1069 -2.7820989e-11    21832.202    3.1868027    27.948972 
    1260 1.714466e-23   -1316.1069 -2.1620506e-11    21832.202    3.1868027    27.948972 
    1270 2.2340689e-23   -1316.1069 -2.452185e-11    21832.202    3.1868027    27.948972 
    1280 2.8396769e-23   -1316.1069 6.4073134e-12    21832.202    3.1868027    27.948972 
    1290 3.5466137e-23   -1316.1069 2.9092131e-11    21832.202    3.1868027    27.948972 
    1300 4.3612886e-23   -1316.1069 2.3813869e-11    21832.202    3.1868027    27.948972 
    1310 5.2875151e-23   -1316.1069 3.1379349e-11    21832.202    3.1868027    27.948972 
    1320 6.3340227e-23   -1316.1069 2.6531658e-11    21832.202    3.1868027    27.948972 
    1330 7.4881598e-23   -1316.1069 -7.7879952e-11    21832.202    3.1868027    27.948972 
    1340 8.7659434e-23   -1316.1069 -4.5814154e-11    21832.202    3.1868027    27.948972 
    1350 1.0163491e-22   -1316.1069 7.7098252e-11    21832.202    3.1868027    27.948972 
    1360 1.153622e-22   -1316.1069 7.2901155e-11    21832.202    3.1868027    27.948972 
    1370 1.2782206e-22   -1316.1069 -7.0391765e-11    21832.202    3.1868027    27.948972 
    1380 1.3857259e-22   -1316.1069 -7.4772853e-11    21832.202    3.1868027    27.948972 
    1390 1.4757984e-22   -1316.1069 3.216657e-11    21832.202    3.1868027    27.948972 
    1400 1.5520069e-22   -1316.1069 5.1717381e-11    21832.202    3.1868027    27.948972 
    1410 1.6329417e-22   -1316.1069 4.8495098e-11    21832.202    3.1868027    27.948972 
    1420 1.7114497e-22   -1316.1069 -4.3480967e-11    21832.202    3.1868027    27.948972 
    1430 1.7661486e-22   -1316.1069 -4.894784e-11    21832.202    3.1868027    27.948972 
    1440 1.7952126e-22   -1316.1069 1.0893589e-12    21832.202    3.1868027    27.948972 
    1450 1.7991305e-22   -1316.1069 5.2765013e-11    21832.202    3.1868027    27.948972 
    1460 1.7746107e-22   -1316.1069 5.6028267e-11    21832.202    3.1868027    27.948972 
    1470 1.7265739e-22   -1316.1069 -4.907485e-11    21832.202    3.1868027    27.948972 
    1480 1.6769593e-22   -1316.1069 -5.0754276e-11    21832.202    3.1868027    27.948972 
    1490 1.6282834e-22   -1316.1069 -2.2018736e-11    21832.202    3.1868027    27.948972 
    1500 1.5678169e-22   -1316.1069  5.54613e-11    21832.202    3.1868027    27.948972 
    1510 1.5006698e-22   -1316.1069 5.3531516e-11    21832.202    3.1868027    27.948972 
    1520 1.4344708e-22   -1316.1069 -5.1405218e-11    21832.202    3.1868027    27.948972 
    1530 1.3537247e-22   -1316.1069 -4.3590281e-11    21832.202    3.1868027    27.948972 
    1540 1.254119e-22   -1316.1069 -4.9343514e-11    21832.202    3.1868027    27.948972 
    1550 1.1442603e-22   -1316.1069 2.4102902e-11    21832.202    3.1868027    27.948972 
    1560 1.0245771e-22   -1316.1069 3.0975626e-11    21832.202    3.1868027    27.948972 
    1570 9.0268568e-23   -1316.1069 2.5194934e-11    21832.202    3.1868027    27.948972 
    1580 7.9563602e-23   -1316.1069 3.0242336e-11    21832.202    3.1868027    27.948972 
    1590 7.0667881e-23   -1316.1069 -2.1674814e-11    21832.202    3.1868027    27.948972 
    1600 6.3716686e-23   -1316.1069 -2.6115848e-11    21832.202    3.1868027    27.948972 
    1610 5.9001253e-23   -1316.1069 -1.8476562e-11    21832.202    3.1868027    27.948972 
    1620 5.6754764e-23   -1316.1069 -2.3176932e-11    21832.202    3.1868027    27.948972 
    1630 5.712664e-23   -1316.1069 -2.6616069e-11    21832.202    3.1868027    27.948972 
    1640 6.0340547e-23   -1316.1069 3.029429e-11    21832.202    3.1868027    27.948972 
    1650 6.6888591e-23   -1316.1069 2.5856714e-11    21832.202    3.1868027    27.948972 
    1660 7.7082958e-23   -1316.1069 2.7503509e-11    21832.202    3.1868027    27.948972 
    1670 9.1298502e-23   -1316.1069 2.7503509e-11    21832.202    3.1868027    27.948972 
    1680 1.0975716e-22   -1316.1069 -2.0560059e-11    21832.202    3.1868027    27.948972 
    1690 1.3247575e-22   -1316.1069 -2.0735362e-11    21832.202    3.1868027    27.948972 
    1700 1.5923073e-22   -1316.1069 -2.1479462e-11    21832.202    3.1868027    27.948972 
    1710 1.8810139e-22   -1316.1069 -2.1593541e-11    21832.202    3.1868027    27.948972 
    1720 2.1824726e-22   -1316.1069 -1.9970835e-11    21832.202    3.1868027    27.948972 
    1730 2.4894013e-22   -1316.1069 2.8949082e-11    21832.202    3.1868027    27.948972 
    1740 2.8066315e-22   -1316.1069 2.9270572e-11    21832.202    3.1868027    27.948972 
    1750 3.1422513e-22   -1316.1069 2.8791475e-11    21832.202    3.1868027    27.948972 
    1760 3.4961066e-22   -1316.1069 2.9104364e-11    21832.202    3.1868027    27.948972 
    1770 3.8603728e-22   -1316.1069 -2.0703428e-11    21832.202    3.1868027    27.948972 
    1780 4.2121497e-22   -1316.1069 -2.0032349e-11    21832.202    3.1868027    27.948972 
    1790 4.5480672e-22   -1316.1069 -2.1892628e-11    21832.202    3.1868027    27.948972 
    1800 4.8658637e-22   -1316.1069 -2.2029313e-11    21832.202    3.1868027    27.948972 
    1810 5.1599231e-22   -1316.1069 -2.144314e-11    21832.202    3.1868027    27.948972 
    1820 5.4247622e-22   -1316.1069 2.8981887e-11    21832.202    3.1868027    27.948972 
    1830 5.6789272e-22   -1316.1069 2.8561515e-11    21832.202    3.1868027    27.948972 
    1840 5.9302325e-22   -1316.1069 2.8240664e-11    21832.202    3.1868027    27.948972 
    1850 6.1811087e-22   -1316.1069 2.8953469e-11    21832.202    3.1868027    27.948972 
    1860 6.4258464e-22   -1316.1069 -6.9583797e-11    21832.202    3.1868027    27.948972 
    1870 6.6225584e-22   -1316.1069 -7.0414023e-11    21832.202    3.1868027    27.948972 
    1880 6.7559347e-22   -1316.1069 2.9430532e-11    21832.202    3.1868027    27.948972 
    1890 6.8198212e-22   -1316.1069 8.0551482e-11    21832.202    3.1868027    27.948972 
    1900 6.8427727e-22   -1316.1069 -7.228607e-11    21832.202    3.1868027    27.948972 
    1910 6.8226941e-22   -1316.1069 -7.1873601e-11    21832.202    3.1868027    27.948972 
    1920 6.7642066e-22   -1316.1069 4.6753519e-12    21832.202    3.1868027    27.948972 
    1930 6.6383279e-22   -1316.1069 7.9825108e-11    21832.202    3.1868027    27.948972 
    1940 6.4403812e-22   -1316.1069 -1.9835718e-11    21832.202    3.1868027    27.948972 
    1950 6.1903682e-22   -1316.1069 -7.3767005e-11    21832.202    3.1868027    27.948972 
    1960 5.9031499e-22   -1316.1069 -2.7291681e-11    21832.202    3.1868027    27.948972 
    1970 5.5916684e-22   -1316.1069 8.0234031e-11    21832.202    3.1868027    27.948972 
    1980 5.2739657e-22   -1316.1069 7.7080615e-11    21832.202    3.1868027    27.948972 
    1990 4.9984454e-22   -1316.1069 -7.5256193e-11    21832.202    3.1868027    27.948972 
    2000 4.7899442e-22   -1316.1069 -4.7224393e-11    21832.202    3.1868027    27.948972 
    2010 4.6728823e-22   -1316.1069 7.9880956e-11    21832.202    3.1868027    27.948972 
    2020 4.6707599e-22   -1316.1069 7.4635354e-11    21832.202    3.1868027    27.948972 
    2030 4.806693e-22   -1316.1069 -1.273528e-10    21832.202    3.1868027    27.948972 
    2040 5.1042142e-22   -1316.1069 -7.4179299e-11    21832.202    3.1868027    27.948972 
    2050 5.5690802e-22   -1316.1069 5.3290573e-11    21832.202    3.1868027    27.948972 
    2060 6.1877821e-22   -1316.1069 1.3056035e-10    21832.202    3.1868027    27.948972 
    2070 6.9706288e-22   -1316.1069 -1.2572001e-10    21832.202    3.1868027    27.948972 
    2080 7.9228203e-22   -1316.1069 -9.6075065e-11    21832.202    3.1868027    27.948972 
    2090 9.0510378e-22   -1316.1069 2.6139413e-11    21832.202    3.1868027    27.948972 
    2100 1.0357583e-21   -1316.1069 1.3008954e-10    21832.202    3.1868027    27.948972 
    2110 1.1837468e-21   -1316.1069 -7.5014552e-11    21832.202    3.1868027    27.948972 
    2120 1.3500959e-21   -1316.1069 -1.213622e-10    21832.202    3.1868027    27.948972 
    2130 1.5350924e-21   -1316.1069 -1.1914664e-12    21832.202    3.1868027    27.948972 
    2140 1.7281846e-21   -1316.1069 1.3050192e-10    21832.202    3.1868027    27.948972 
    2150 1.9296311e-21   -1316.1069 2.5725957e-11    21832.202    3.1868027    27.948972 
    2160 2.1361855e-21   -1316.1069 -1.2357151e-10    21832.202    3.1868027    27.948972 
    2170 2.3419305e-21   -1316.1069 -2.4241563e-11    21832.202    3.1868027    27.948972 
    2180 2.5438551e-21   -1316.1069 1.0248932e-10    21832.202    3.1868027    27.948972 
    2190 2.7397036e-21   -1316.1069 7.5671218e-11    21832.202    3.1868027    27.948972 
    2200 2.9222547e-21   -1316.1069 -1.2467276e-10    21832.202    3.1868027    27.948972 
    2210 3.0881884e-21   -1316.1069 -2.3890406e-11    21832.202    3.1868027    27.948972 
    2220 3.2345149e-21   -1316.1069 1.0233044e-10    21832.202    3.1868027    27.948972 
    2230 3.3565305e-21   -1316.1069 1.2833023e-10    21832.202    3.1868027    27.948972 
    2240 3.4504011e-21   -1316.1069 -1.2405009e-10    21832.202    3.1868027    27.948972 
    2250 3.5182291e-21   -1316.1069 -4.7306392e-11    21832.202    3.1868027    27.948972 
    2260 3.5502688e-21   -1316.1069 7.8676588e-11    21832.202    3.1868027    27.948972 
    2270 3.5464711e-21   -1316.1069 1.279379e-10    21832.202    3.1868027    27.948972 
    2280 3.5210105e-21   -1316.1069 -1.2312592e-10    21832.202    3.1868027    27.948972 
    2290 3.4638228e-21   -1316.1069 -7.3784294e-11    21832.202    3.1868027    27.948972 
    2300 3.3726013e-21   -1316.1069  5.33597e-11    21832.202    3.1868027    27.948972 
    2310 3.2496585e-21   -1316.1069 1.2843684e-10    21832.202    3.1868027    27.948972 
    2320 3.1003069e-21   -1316.1069 -1.2420281e-10    21832.202    3.1868027    27.948972 
    2330 2.9355057e-21   -1316.1069 -7.3639211e-11    21832.202    3.1868027    27.948972 
    2340 2.766643e-21   -1316.1069 5.1803797e-11    21832.202    3.1868027    27.948972 
    2350 2.6061556e-21   -1316.1069  1.27664e-10    21832.202    3.1868027    27.948972 
    2360 2.4642307e-21   -1316.1069 -1.2372296e-10    21832.202    3.1868027    27.948972 
    2370 2.3475835e-21   -1316.1069 -1.5032343e-10    21832.202    3.1868027    27.948972 
    2380 2.2647089e-21   -1316.1069 1.7890453e-10    21832.202    3.1868027    27.948972 
    2390 2.2250692e-21   -1316.1069 2.7853592e-11    21832.202    3.1868027    27.948972 
    2400 2.2402694e-21   -1316.1069 -1.9935902e-10    21832.202    3.1868027    27.948972 
    2410 2.3180626e-21   -1316.1069 1.7822345e-10    21832.202    3.1868027    27.948972 
    2420 2.4661357e-21   -1316.1069 1.2873587e-10    21832.202    3.1868027    27.948972 
    2430 2.6910202e-21   -1316.1069 -2.2465856e-10    21832.202    3.1868027    27.948972 
    2440 2.9936797e-21   -1316.1069 7.6760548e-11    21832.202    3.1868027    27.948972 
    2450 3.3767621e-21   -1316.1069 2.0331375e-10    21832.202    3.1868027    27.948972 
    2460 3.844286e-21   -1316.1069 -2.4993416e-10    21832.202    3.1868027    27.948972 
    2470 4.390974e-21   -1316.1069 -4.7847207e-11    21832.202    3.1868027    27.948972 
    2480 5.0159855e-21   -1316.1069 2.2901483e-10    21832.202    3.1868027    27.948972 
    2490 5.7148196e-21   -1316.1069 -1.2397582e-10    21832.202    3.1868027    27.948972 
    2500 6.4728253e-21   -1316.1069 -1.7437397e-10    21832.202    3.1868027    27.948972 
    2510 7.2893162e-21   -1316.1069 2.0451675e-10    21832.202    3.1868027    27.948972 
    2520 8.1521794e-21   -1316.1069 -4.857733e-11    21832.202    3.1868027    27.948972 
    2530 9.0391234e-21   -1316.1069 -1.7416708e-10    21832.202    3.1868027    27.948972 
    2540 9.9384377e-21   -1316.1069 1.7809519e-10    21832.202    3.1868027    27.948972 
    2550 1.083707e-20   -1316.1069 5.204875e-11    21832.202    3.1868027    27.948972 
    2560 1.170631e-20   -1316.1069 -1.9945253e-10    21832.202    3.1868027    27.948972 
    2570 1.2535536e-20   -1316.1069 1.0318963e-10    21832.202    3.1868027    27.948972 
    2580 1.3309334e-20   -1316.1069 2.0447578e-10    21832.202    3.1868027    27.948972 
    2590 1.4016843e-20   -1316.1069 -2.5047843e-10    21832.202    3.1868027    27.948972 
    2600 1.4632055e-20   -1316.1069 -2.3168128e-11    21832.202    3.1868027    27.948972 
    2610 1.5143427e-20   -1316.1069 2.5535558e-10    21832.202    3.1868027    27.948972 
    2620 1.5541588e-20   -1316.1069 -1.4889183e-10    21832.202    3.1868027    27.948972 
    2630 1.5821062e-20   -1316.1069 -1.7453163e-10    21832.202    3.1868027    27.948972 
    2640 1.5980481e-20   -1316.1069 2.7980621e-10    21832.202    3.1868027    27.948972 
    2650 1.6022922e-20   -1316.1069 2.3933353e-12    21832.202    3.1868027    27.948972 
    2660 1.5960214e-20   -1316.1069 -2.999842e-10    21832.202    3.1868027    27.948972 
    2670 1.5805237e-20   -1316.1069 2.5457827e-10    21832.202    3.1868027    27.948972 
    2680 1.5577991e-20   -1316.1069 1.2820514e-10    21832.202    3.1868027    27.948972 
    2690 1.5300633e-20   -1316.1069 -3.2613294e-10    21832.202    3.1868027    27.948972 
    2700 1.5004605e-20   -1316.1069 1.030263e-10    21832.202    3.1868027    27.948972 
    2710 1.4715142e-20   -1316.1069 2.796704e-10    21832.202    3.1868027    27.948972 
    2720 1.4463997e-20   -1316.1069 -2.2430156e-10    21832.202    3.1868027    27.948972 
    2730 1.4286918e-20   -1316.1069 -1.7439413e-10    21832.202    3.1868027    27.948972 
    2740 1.422794e-20   -1316.1069 3.3079487e-10    21832.202    3.1868027    27.948972 
    2750 1.4320449e-20   -1316.1069 -2.2682377e-11    21832.202    3.1868027    27.948972 
    2760 1.4599656e-20   -1316.1069 -3.2582252e-10    21832.202    3.1868027    27.948972 
    2770 1.5096891e-20   -1316.1069 2.538324e-10    21832.202    3.1868027    27.948972 
    2780 1.5839338e-20   -1316.1069 1.7894942e-10    21832.202    3.1868027    27.948972 
    2790 1.6850072e-20   -1316.1069 -3.2547296e-10    21832.202    3.1868027    27.948972 
    2800 1.8140045e-20   -1316.1069 -7.3475386e-11    21832.202    3.1868027    27.948972 
    2810 1.9716224e-20   -1316.1069 4.0596168e-10    21832.202    3.1868027    27.948972 
    2820 2.1577664e-20   -1316.1069 -2.5000628e-10    21832.202    3.1868027    27.948972 
    2830 2.3716614e-20   -1316.1069 -2.7563001e-10    21832.202    3.1868027    27.948972 
    2840 2.6115438e-20   -1316.1069 4.5576686e-10    21832.202    3.1868027    27.948972 
    2850 2.8737418e-20   -1316.1069 -4.7682423e-11    21832.202    3.1868027    27.948972 
    2860 3.1542344e-20   -1316.1069 -4.5119788e-10    21832.202    3.1868027    27.948972 
    2870 3.4491427e-20   -1316.1069 4.0563621e-10    21832.202    3.1868027    27.948972 
    2880 3.7525343e-20   -1316.1069 1.5349056e-10    21832.202    3.1868027    27.948972 
    2890 4.0588432e-20   -1316.1069 -5.0237994e-10    21832.202    3.1868027    27.948972 
    2900 4.3627551e-20   -1316.1069 1.534624e-10    21832.202    3.1868027    27.948972 
    2910 4.6563652e-20   -1316.1069 4.3116565e-10    21832.202    3.1868027    27.948972 
    2920 4.9317823e-20   -1316.1069 -4.2649222e-10    21832.202    3.1868027    27.948972 
    2930 5.1840962e-20   -1316.1069 -2.2452771e-10    21832.202    3.1868027    27.948972 
    2940 5.4081951e-20   -1316.1069 5.8221493e-10    21832.202    3.1868027    27.948972 
    2950 5.5985762e-20   -1316.1069 2.7086945e-12    21832.202    3.1868027    27.948972 
    2960 5.7515558e-20   -1316.1069 -5.7775753e-10    21832.202    3.1868027    27.948972 
    2970 5.8650873e-20   -1316.1069 2.5421764e-10    21832.202    3.1868027    27.948972 
    2980 5.9384938e-20   -1316.1069 4.8128526e-10    21832.202    3.1868027    27.948972 
    2990 5.9707739e-20   -1316.1069 -4.0090309e-10    21832.202    3.1868027    27.948972 
    3000 5.9647764e-20   -1316.1069 -3.0058011e-10    21832.202    3.1868027    27.948972 
    3010 5.925333e-20   -1316.1069 5.8168696e-10    21832.202    3.1868027    27.948972 
    3020 5.8589417e-20   -1316.1069 7.7562269e-11    21832.202    3.1868027    27.948972 
    3030 5.7738202e-20   -1316.1069 -6.0308276e-10    21832.202    3.1868027    27.948972 
    3040 5.6808069e-20   -1316.1069 1.279746e-10    21832.202    3.1868027    27.948972 
    3050 5.5915053e-20   -1316.1069 5.5663798e-10    21832.202    3.1868027    27.948972 
    3060  5.51995e-20   -1316.1069 -3.7643192e-10    21832.202    3.1868027    27.948972 
    3070 5.4799639e-20   -1316.1069 -4.0093877e-10    21832.202    3.1868027    27.948972 
    3080 5.4875109e-20   -1316.1069 5.5691382e-10    21832.202    3.1868027    27.948972 
    3090 5.5579659e-20   -1316.1069 2.2877685e-10    21832.202    3.1868027    27.948972 
    3100 5.7070102e-20   -1316.1069 -7.035766e-10    21832.202    3.1868027    27.948972 
    3110 5.9490372e-20   -1316.1069 -2.3030425e-11    21832.202    3.1868027    27.948972 
    3120 6.2972159e-20   -1316.1069 7.3392883e-10    21832.202    3.1868027    27.948972 
    3130 6.7637228e-20   -1316.1069 -1.7396095e-10    21832.202    3.1868027    27.948972 
    3140 7.358414e-20   -1316.1069 -6.536201e-10    21832.202    3.1868027    27.948972 
    3150 8.0869367e-20   -1316.1069 3.5516283e-10    21832.202    3.1868027    27.948972 
    3160 8.9526811e-20   -1316.1069 5.0654307e-10    21832.202    3.1868027    27.948972 
    3170 9.9548267e-20   -1316.1069 -5.5265727e-10    21832.202    3.1868027    27.948972 
    3180 1.1088447e-19   -1316.1069 -3.004626e-10    21832.202    3.1868027    27.948972 
    3190 1.2344487e-19   -1316.1069 6.5768213e-10    21832.202    3.1868027    27.948972 
    3200 1.3709514e-19   -1316.1069 1.0247532e-10    21832.202    3.1868027    27.948972 
    3210 1.516586e-19   -1316.1069 -6.7871641e-10    21832.202    3.1868027    27.948972 
    3220 1.6690855e-19   -1316.1069 1.0256252e-10    21832.202    3.1868027    27.948972 
    3230 1.8258867e-19   -1316.1069 6.8285522e-10    21832.202    3.1868027    27.948972 
    3240 1.9840971e-19   -1316.1069 -3.0063511e-10    21832.202    3.1868027    27.948972 
    3250 2.1406104e-19   -1316.1069 -5.5311864e-10    21832.202    3.1868027    27.948972 
    3260 2.2922751e-19   -1316.1069 4.5632758e-10    21832.202    3.1868027    27.948972 
    3270 2.4357375e-19   -1316.1069 4.3106375e-10    21832.202    3.1868027    27.948972 
    3280 2.5677768e-19   -1316.1069 -6.2787699e-10    21832.202    3.1868027    27.948972 
    3290 2.6851652e-19   -1316.1069 -1.9958354e-10    21832.202    3.1868027    27.948972 
    3300 2.7856231e-19   -1316.1069 6.5832445e-10    21832.202    3.1868027    27.948972 
    3310 2.8668205e-19   -1316.1069 2.0512443e-12    21832.202    3.1868027    27.948972 
    3320 2.9268851e-19   -1316.1069 -6.7806611e-10    21832.202    3.1868027    27.948972 
    3330 2.9647849e-19   -1316.1069 2.0402667e-10    21832.202    3.1868027    27.948972 
    3340 2.9800823e-19   -1316.1069 6.3257519e-10    21832.202    3.1868027    27.948972 
    3350 2.9733379e-19   -1316.1069 -4.2630671e-10    21832.202    3.1868027    27.948972 
    3360 2.9460097e-19   -1316.1069 -5.0227792e-10    21832.202    3.1868027    27.948972 
    3370 2.9006161e-19   -1316.1069 5.569341e-10    21832.202    3.1868027    27.948972 
    3380 2.8407157e-19   -1316.1069 3.551585e-10    21832.202    3.1868027    27.948972 
    3390 2.7706322e-19   -1316.1069 -6.5369468e-10    21832.202    3.1868027    27.948972 
    3400 2.6957191e-19   -1316.1069 -1.4899585e-10    21832.202    3.1868027    27.948972 
    3410 2.6223638e-19   -1316.1069 7.0820889e-10    21832.202    3.1868027    27.948972 
    3420 2.5575593e-19   -1316.1069 -4.7747859e-11    21832.202    3.1868027    27.948972 
    3430 2.5088343e-19   -1316.1069 -7.2931505e-10    21832.202    3.1868027    27.948972 
    3440 2.4842468e-19   -1316.1069 2.5405158e-10    21832.202    3.1868027    27.948972 
    3450 2.4920486e-19   -1316.1069 6.8344857e-10    21832.202    3.1868027    27.948972 
    3460 2.5403708e-19   -1316.1069 -4.0178943e-10    21832.202    3.1868027    27.948972 
    3470 2.6371004e-19   -1316.1069 -5.5257858e-10    21832.202    3.1868027    27.948972 
    3480 2.7896349e-19   -1316.1069 5.3184276e-10    21832.202    3.1868027    27.948972 
    3490 3.0044566e-19   -1316.1069 4.056986e-10    21832.202    3.1868027    27.948972 
    3500 3.2868852e-19   -1316.1069 -6.5392697e-10    21832.202    3.1868027    27.948972 
    3510 3.6408764e-19   -1316.1069 -1.9983181e-10    21832.202    3.1868027    27.948972 
    3520 4.0687234e-19   -1316.1069 7.8433602e-10    21832.202    3.1868027    27.948972 
    3530 4.5710299e-19   -1316.1069 5.2398747e-11    21832.202    3.1868027    27.948972 
    3540 5.1461518e-19   -1316.1069 -7.7965979e-10    21832.202    3.1868027    27.948972 
    3550 5.7905054e-19   -1316.1069 7.7790981e-11    21832.202    3.1868027    27.948972 
    3560 6.4982594e-19   -1316.1069 7.0857042e-10    21832.202    3.1868027    27.948972 
    3570 7.2611855e-19   -1316.1069 -2.5024809e-10    21832.202    3.1868027    27.948972 
    3580 8.0691107e-19   -1316.1069 -6.2828365e-10    21832.202    3.1868027    27.948972 
    3590 8.9098132e-19   -1316.1069 4.0491338e-10    21832.202    3.1868027    27.948972 
    3600 9.7694255e-19   -1316.1069 4.8166216e-10    21832.202    3.1868027    27.948972 
    3610 1.0632253e-18   -1316.1069 -5.7760085e-10    21832.202    3.1868027    27.948972 
    3620 1.1481865e-18   -1316.1069 -3.255898e-10    21832.202    3.1868027    27.948972 
    3630 1.230117e-18   -1316.1069 7.3371468e-10    21832.202    3.1868027    27.948972 
    3640 1.3072934e-18   -1316.1069 1.7892714e-10    21832.202    3.1868027    27.948972 
    3650 1.3780325e-18   -1316.1069 -7.7963059e-10    21832.202    3.1868027    27.948972 
    3660 1.4407553e-18   -1316.1069 -4.8274171e-11    21832.202    3.1868027    27.948972 
    3670 1.4940596e-18   -1316.1069 7.8373489e-10    21832.202    3.1868027    27.948972 
    3680 1.5367544e-18   -1316.1069 -7.3408375e-11    21832.202    3.1868027    27.948972 
    3690 1.5679733e-18   -1316.1069 -7.7994243e-10    21832.202    3.1868027    27.948972 
    3700 1.5871745e-18   -1316.1069 2.0381926e-10    21832.202    3.1868027    27.948972 
    3710 1.5942299e-18   -1316.1069 6.5743393e-10    21832.202    3.1868027    27.948972 
    3720 1.5894716e-18   -1316.1069 -4.017728e-10    21832.202    3.1868027    27.948972 
    3730 1.5737324e-18   -1316.1069 -5.2786559e-10    21832.202    3.1868027    27.948972 
    3740 1.5483553e-18   -1316.1069 5.5710246e-10    21832.202    3.1868027    27.948972 
    3750 1.515186e-18   -1316.1069 4.0578313e-10    21832.202    3.1868027    27.948972 
    3760 1.4766163e-18   -1316.1069 -6.7903092e-10    21832.202    3.1868027    27.948972 
    3770 1.4355357e-18   -1316.1069 -2.999717e-10    21832.202    3.1868027    27.948972 
    3780 1.3953143e-18   -1316.1069 8.0920775e-10    21832.202    3.1868027    27.948972 
    3790 1.3597375e-18   -1316.1069 1.0285597e-10    21832.202    3.1868027    27.948972 
    3800 1.332957e-18   -1316.1069 -8.5502111e-10    21832.202    3.1868027    27.948972 
    3810 1.3193877e-18   -1316.1069 7.7630616e-11    21832.202    3.1868027    27.948972 
    3820 1.3236071e-18   -1316.1069 8.3433742e-10    21832.202    3.1868027    27.948972 
    3830 1.3502599e-18   -1316.1069 -4.0142533e-10    21832.202    3.1868027    27.948972 
    3840 1.4039164e-18   -1316.1069 -6.7851254e-10    21832.202    3.1868027    27.948972 
    3850 1.4889437e-18   -1316.1069 6.0754173e-10    21832.202    3.1868027    27.948972 
    3860 1.6093742e-18   -1316.1069 4.8196134e-10    21832.202    3.1868027    27.948972 
    3870 1.7687461e-18   -1316.1069 -7.5482331e-10    21832.202    3.1868027    27.948972 
    3880 1.9700117e-18   -1316.1069 -2.5034409e-10    21832.202    3.1868027    27.948972 
    3890 2.215355e-18   -1316.1069 8.6020614e-10    21832.202    3.1868027    27.948972 
    3900 2.5060853e-18   -1316.1069 2.7765323e-11    21832.202    3.1868027    27.948972 
    3910 2.8425619e-18   -1316.1069 -8.303103e-10    21832.202    3.1868027    27.948972 
    3920 3.2240962e-18   -1316.1069 2.0378571e-10    21832.202    3.1868027    27.948972 
    3930 3.6489131e-18   -1316.1069 7.5859191e-10    21832.202    3.1868027    27.948972 
    3940 4.1140466e-18   -1316.1069 -3.0089539e-10    21832.202    3.1868027    27.948972 
    3950 4.6154195e-18   -1316.1069 -6.5356481e-10    21832.202    3.1868027    27.948972 
    3960 5.1477952e-18   -1316.1069 4.8148975e-10    21832.202    3.1868027    27.948972 
    3970 5.7049247e-18   -1316.1069 5.5780069e-10    21832.202    3.1868027    27.948972 
    3980 6.2796416e-18   -1316.1069 -7.0413748e-10    21832.202    3.1868027    27.948972 
    3990 6.8639666e-18   -1316.1069 -3.002692e-10    21832.202    3.1868027    27.948972 
    4000 7.4493102e-18   -1316.1069 8.089034e-10    21832.202    3.1868027    27.948972 
    4010 8.0266226e-18   -1316.1069 1.0270992e-10    21832.202    3.1868027    27.948972 
    4020 8.5867028e-18   -1316.1069 -8.5521325e-10    21832.202    3.1868027    27.948972 
    4030 9.1204187e-18   -1316.1069 1.0284417e-10    21832.202    3.1868027    27.948972 
    4040 9.618947e-18   -1316.1069 8.0928536e-10    21832.202    3.1868027    27.948972 
    4050 1.0074087e-17   -1316.1069 -4.2667039e-10    21832.202    3.1868027    27.948972 
    4060 1.0478688e-17   -1316.1069 -6.5352679e-10    21832.202    3.1868027    27.948972 
    4070 1.0826824e-17   -1316.1069 6.3321436e-10    21832.202    3.1868027    27.948972 
    4080 1.1114037e-17   -1316.1069 4.5606339e-10    21832.202    3.1868027    27.948972 
    4090 1.133768e-17   -1316.1069 -8.053138e-10    21832.202    3.1868027    27.948972 
    4100 1.1497177e-17   -1316.1069 -1.4893948e-10    21832.202    3.1868027    27.948972 
    4110 1.1594119e-17   -1316.1069 8.8467499e-10    21832.202    3.1868027    27.948972 
    4120 1.1632587e-17   -1316.1069 -2.5019886e-10    21832.202    3.1868027    27.948972 
    4130 1.1619179e-17   -1316.1069 -8.0452425e-10    21832.202    3.1868027    27.948972 
    4140 1.1563048e-17   -1316.1069 4.8143029e-10    21832.202    3.1868027    27.948972 
    4150 1.1475902e-17   -1316.1069 6.3191588e-10    21832.202    3.1868027    27.948972 
    4160 1.1371973e-17   -1316.1069 -7.039399e-10    21832.202    3.1868027    27.948972 
    4170 1.1267828e-17   -1316.1069 -4.0122617e-10    21832.202    3.1868027    27.948972 
    4180 1.1182104e-17   -1316.1069 8.8497402e-10    21832.202    3.1868027    27.948972 
    4190 1.1135247e-17   -1316.1069 1.0293356e-10    21832.202    3.1868027    27.948972 
    4200 1.1149144e-17   -1316.1069 -9.0539279e-10    21832.202    3.1868027    27.948972 
    4210 1.1246756e-17   -1316.1069 2.2926386e-10    21832.202    3.1868027    27.948972 
    4220 1.1451523e-17   -1316.1069 7.8418115e-10    21832.202    3.1868027    27.948972 
    4230 1.1786882e-17   -1316.1069 -5.2746462e-10    21832.202    3.1868027    27.948972 
    4240 1.2275779e-17   -1316.1069 -5.272113e-10    21832.202    3.1868027    27.948972 
    4250 1.2939969e-17   -1316.1069 7.080893e-10    21832.202    3.1868027    27.948972 
    4260 1.3799481e-17   -1316.1069 3.5554704e-10    21832.202    3.1868027    27.948972 
    4270 1.4871986e-17   -1316.1069 -8.8104495e-10    21832.202    3.1868027    27.948972 
    4280 1.6172244e-17   -1316.1069 2.5868492e-12    21832.202    3.1868027    27.948972 
    4290 1.7711528e-17   -1316.1069 8.5933389e-10    21832.202    3.1868027    27.948972 
    4300 1.9497239e-17   -1316.1069 -3.2531939e-10    21832.202    3.1868027    27.948972 
    4310 2.1532422e-17   -1316.1069 -7.5454746e-10    21832.202    3.1868027    27.948972 
    4320 2.3815434e-17   -1316.1069 5.3235465e-10    21832.202    3.1868027    27.948972 
    4330 2.6339837e-17   -1316.1069 5.8215724e-10    21832.202    3.1868027    27.948972 
    4340 2.909417e-17   -1316.1069 -8.0485138e-10    21832.202    3.1868027    27.948972 
    4350  3.20621e-17   -1316.1069 -2.5010971e-10    21832.202    3.1868027    27.948972 
    4360 3.5222568e-17   -1316.1069 9.1075802e-10    21832.202    3.1868027    27.948972 
    4370 3.8549999e-17   -1316.1069 -1.4869427e-10    21832.202    3.1868027    27.948972 
    4380 4.2014898e-17   -1316.1069 -8.5571034e-10    21832.202    3.1868027    27.948972 
    4390 4.5584431e-17   -1316.1069 4.561206e-10    21832.202    3.1868027    27.948972 
    4400 4.9223114e-17   -1316.1069 6.8352227e-10    21832.202    3.1868027    27.948972 
    4410 5.2893815e-17   -1316.1069 -6.5330021e-10    21832.202    3.1868027    27.948972 
    4420 5.6558716e-17   -1316.1069 -4.0141302e-10    21832.202    3.1868027    27.948972 
    4430 6.0180367e-17   -1316.1069 7.8398534e-10    21832.202    3.1868027    27.948972 
    4440 6.3723031e-17   -1316.1069 1.7862784e-10    21832.202    3.1868027    27.948972 
    4450 6.7153804e-17   -1316.1069 -8.5527696e-10    21832.202    3.1868027    27.948972 
    4460 7.044397e-17   -1316.1069 7.7943895e-11    21832.202    3.1868027    27.948972 
    4470 7.3570351e-17   -1316.1069 8.3475288e-10    21832.202    3.1868027    27.948972 
    4480 7.6516653e-17   -1316.1069 -4.0131175e-10    21832.202    3.1868027    27.948972 
    4490 7.927444e-17   -1316.1069 -6.7885918e-10    21832.202    3.1868027    27.948972 
    4500 8.1844413e-17   -1316.1069 6.0722639e-10    21832.202    3.1868027    27.948972 
    4510 8.4237323e-17   -1316.1069 4.8182642e-10    21832.202    3.1868027    27.948972 
    4520 8.6474892e-17   -1316.1069 -7.5436211e-10    21832.202    3.1868027    27.948972 
    4530 8.8590163e-17   -1316.1069 -2.5015344e-10    21832.202    3.1868027    27.948972 
    4540 9.0628156e-17   -1316.1069 8.6017463e-10    21832.202    3.1868027    27.948972 
    4550 9.2645755e-17   -1316.1069 -7.3113653e-11    21832.202    3.1868027    27.948972 
    4560 9.4711343e-17   -1316.1069 -8.8080885e-10    21832.202    3.1868027    27.948972 
    4570 9.6904501e-17   -1316.1069 3.5497731e-10    21832.202    3.1868027    27.948972 
    4580 9.9315078e-17   -1316.1069 7.5872785e-10    21832.202    3.1868027    27.948972 
    4590 1.0204171e-16   -1316.1069 -6.5342198e-10    21832.202    3.1868027    27.948972 
    4600 1.0519069e-16   -1316.1069 -5.0160306e-10    21832.202    3.1868027    27.948972 
    4610 1.0887377e-16   -1316.1069 8.345026e-10    21832.202    3.1868027    27.948972 
    4620 1.132059e-16   -1316.1069 1.7905914e-10    21832.202    3.1868027    27.948972 
    4630 1.1830298e-16   -1316.1069 -9.0538368e-10    21832.202    3.1868027    27.948972 
    4640 1.2427895e-16   -1316.1069 2.3008848e-10    21832.202    3.1868027    27.948972 
    4650 1.3124303e-16   -1316.1069 8.3416517e-10    21832.202    3.1868027    27.948972 
    4660 1.3929641e-16   -1316.1069 -6.2811678e-10    21832.202    3.1868027    27.948972 
    4670 1.485295e-16   -1316.1069 -6.0347501e-10    21832.202    3.1868027    27.948972 
    4680 1.5901866e-16   -1316.1069 8.3423912e-10    21832.202    3.1868027    27.948972 
    4690 1.7082344e-16   -1316.1069 2.7990656e-10    21832.202    3.1868027    27.948972 
    4700 1.8398364e-16   -1316.1069 -1.0066069e-09    21832.202    3.1868027    27.948972 
    4710 1.9851667e-16   -1316.1069 1.5312081e-10    21832.202    3.1868027    27.948972 
    4720 2.1441616e-16   -1316.1069 9.6063701e-10    21832.202    3.1868027    27.948972 
    4730 2.3165027e-16   -1316.1069 -6.5359331e-10    21832.202    3.1868027    27.948972 
    4740 2.5016067e-16   -1316.1069 -7.0400721e-10    21832.202    3.1868027    27.948972 
    4750 2.6986252e-16   -1316.1069 9.3545776e-10    21832.202    3.1868027    27.948972 
    4760 2.9064506e-16   -1316.1069 2.7929902e-10    21832.202    3.1868027    27.948972 
    4770 3.1237309e-16   -1316.1069 -1.10756e-09    21832.202    3.1868027    27.948972 
    4780 3.3488956e-16   -1316.1069 1.7822287e-10    21832.202    3.1868027    27.948972 
    4790 3.5801911e-16   -1316.1069 1.0361987e-09    21832.202    3.1868027    27.948972 
    4800 3.8157189e-16   -1316.1069 -6.5361365e-10    21832.202    3.1868027    27.948972 
    4810 4.053494e-16   -1316.1069 -8.2985412e-10    21832.202    3.1868027    27.948972 
    4820 4.2915061e-16   -1316.1069    1.036e-09    21832.202    3.1868027    27.948972 
    4830 4.5277883e-16   -1316.1069 4.0536585e-10    21832.202    3.1868027    27.948972 
    4840 4.7604951e-16   -1316.1069 -1.2077504e-09    21832.202    3.1868027    27.948972 
    4850 4.9879853e-16   -1316.1069 7.7894059e-11    21832.202    3.1868027    27.948972 
    4860 5.2089074e-16   -1316.1069 1.1873373e-09    21832.202    3.1868027    27.948972 
    4870 5.4222831e-16   -1316.1069 -5.7794853e-10    21832.202    3.1868027    27.948972 
    4880 5.6275997e-16   -1316.1069 -1.0315615e-09    21832.202    3.1868027    27.948972 
    4890 5.8248897e-16   -1316.1069 1.0363062e-09    21832.202    3.1868027    27.948972 
    4900 6.0148028e-16   -1316.1069 5.8213483e-10    21832.202    3.1868027    27.948972 
    4910 6.1986731e-16   -1316.1069 -1.2842862e-09    21832.202    3.1868027    27.948972 
    4920 6.3785698e-16   -1316.1069 -7.3708328e-11    21832.202    3.1868027    27.948972 
    4930 6.5573335e-16   -1316.1069 1.3385682e-09    21832.202    3.1868027    27.948972 
    4940 6.7385957e-16   -1316.1069 -4.5181212e-10    21832.202    3.1868027    27.948972 
    4950 6.9267645e-16   -1316.1069 -1.208194e-09    21832.202    3.1868027    27.948972 
    4960 7.1269928e-16   -1316.1069 9.6117708e-10    21832.202    3.1868027    27.948972 
    4970 7.3451265e-16   -1316.1069 7.8403088e-10    21832.202    3.1868027    27.948972 
    4980 7.5876179e-16   -1316.1069 -1.3343442e-09    21832.202    3.1868027    27.948972 
    4990 7.8614087e-16   -1316.1069 -1.9987673e-10    21832.202    3.1868027    27.948972 
    5000 8.1737918e-16   -1316.1069 1.414522e-09    21832.202    3.1868027    27.948972 
    5010 8.5322552e-16   -1316.1069 -3.7631858e-10    21832.202    3.1868027    27.948972 
    5020 8.9442842e-16   -1316.1069 -1.2588546e-09    21832.202    3.1868027    27.948972 
    5030 9.4171381e-16   -1316.1069 9.3571736e-10    21832.202    3.1868027    27.948972 
    5040 9.9576548e-16   -1316.1069 8.5977657e-10    21832.202    3.1868027    27.948972 
    5050   1.0572e-15   -1316.1069 -1.3089734e-09    21832.202    3.1868027    27.948972 
    5060 1.1265445e-15   -1316.1069 -3.5099064e-10    21832.202    3.1868027    27.948972 
    5070 1.2042124e-15   -1316.1069 1.4899789e-09    21832.202    3.1868027    27.948972 
    5080 1.2904839e-15   -1316.1069 -1.7428196e-10    21832.202    3.1868027    27.948972 
    5090 1.3854868e-15   -1316.1069 -1.5106737e-09    21832.202    3.1868027    27.948972 
    5100 1.4891811e-15   -1316.1069 7.5862185e-10    21832.202    3.1868027    27.948972 
    5110 1.6013481e-15   -1316.1069 1.1117662e-09    21832.202    3.1868027    27.948972 
    5120 1.7215863e-15   -1316.1069 -1.2084189e-09    21832.202    3.1868027    27.948972 
    5130 1.8493111e-15   -1316.1069 -6.7859936e-10    21832.202    3.1868027    27.948972 
    5140 1.9837632e-15   -1316.1069 1.4146164e-09    21832.202    3.1868027    27.948972 
    5150 2.1240251e-15   -1316.1069 1.0321755e-10    21832.202    3.1868027    27.948972 
    5160 2.2690444e-15   -1316.1069 -1.4861088e-09    21832.202    3.1868027    27.948972 
    5170 2.4176676e-15   -1316.1069 5.062582e-10    21832.202    3.1868027    27.948972 
    5180 2.5686795e-15   -1316.1069 1.2634228e-09    21832.202    3.1868027    27.948972 
    5190 2.7208544e-15   -1316.1069 -1.0317635e-09    21832.202    3.1868027    27.948972 
    5200 2.8730093e-15   -1316.1069 -8.3004789e-10    21832.202    3.1868027    27.948972 
    5210 3.0240692e-15   -1316.1069 1.3638681e-09    21832.202    3.1868027    27.948972 
    5220 3.173131e-15   -1316.1069 3.2985004e-10    21832.202    3.1868027    27.948972 
    5230 3.3195354e-15   -1316.1069 -1.5863775e-09    21832.202    3.1868027    27.948972 
    5240 3.4629382e-15   -1316.1069 2.5443348e-10    21832.202    3.1868027    27.948972 
    5250 3.6033785e-15   -1316.1069 1.4396564e-09    21832.202    3.1868027    27.948972 
    5260 3.7413435e-15   -1316.1069 -8.0468521e-10    21832.202    3.1868027    27.948972 
    5270 3.8778257e-15   -1316.1069 -1.1075145e-09    21832.202    3.1868027    27.948972 
    5280 4.0143702e-15   -1316.1069 1.2132345e-09    21832.202    3.1868027    27.948972 
    5290 4.1531052e-15   -1316.1069 6.577617e-10    21832.202    3.1868027    27.948972 
    5300 4.2967616e-15   -1316.1069 -1.4605429e-09    21832.202    3.1868027    27.948972 
    5310 4.4486673e-15   -1316.1069 -9.8362492e-11    21832.202    3.1868027    27.948972 
    5320 4.612722e-15   -1316.1069 1.5399807e-09    21832.202    3.1868027    27.948972 
    5330 4.7933454e-15   -1316.1069 -5.2747173e-10    21832.202    3.1868027    27.948972 
    5340 4.9954032e-15   -1316.1069 -1.4604168e-09    21832.202    3.1868027    27.948972 
    5350 5.2241052e-15   -1316.1069 1.1369171e-09    21832.202    3.1868027    27.948972 
    5360 5.4848735e-15   -1316.1069 1.0614537e-09    21832.202    3.1868027    27.948972 
    5370 5.7831899e-15   -1316.1069 -1.6115035e-09    21832.202    3.1868027    27.948972 
    5380 6.1244175e-15   -1316.1069 -4.5187706e-10    21832.202    3.1868027    27.948972 
    5390 6.513604e-15   -1316.1069 1.7926527e-09    21832.202    3.1868027    27.948972 
    5400 6.9552623e-15   -1316.1069 -2.2445605e-10    21832.202    3.1868027    27.948972 
    5410 7.4531568e-15   -1316.1069 -1.7126426e-09    21832.202    3.1868027    27.948972 
    5420 8.0100702e-15   -1316.1069 8.8567132e-10    21832.202    3.1868027    27.948972 
    5430 8.6275829e-15   -1316.1069 1.3642836e-09    21832.202    3.1868027    27.948972 
    5440 9.3058711e-15   -1316.1069 -1.3845718e-09    21832.202    3.1868027    27.948972 
    5450 1.004352e-14   -1316.1069 -8.2985261e-10    21832.202    3.1868027    27.948972 
    5460 1.0837378e-14   -1316.1069 1.7425306e-09    21832.202    3.1868027    27.948972 
    5470 1.1682446e-14   -1316.1069 1.532751e-10    21832.202    3.1868027    27.948972 
    5480 1.2571831e-14   -1316.1069 -1.8638079e-09    21832.202    3.1868027    27.948972 
    5490 1.3496762e-14   -1316.1069 5.3205504e-10    21832.202    3.1868027    27.948972 
    5500 1.444667e-14   -1316.1069 1.6923752e-09    21832.202    3.1868027    27.948972 
    5510 1.540936e-14   -1316.1069 -1.2330888e-09    21832.202    3.1868027    27.948972 
    5520 1.6371258e-14   -1316.1069 -1.25813e-09    21832.202    3.1868027    27.948972 
    5530 1.7317751e-14   -1316.1069 1.8183502e-09    21832.202    3.1868027    27.948972 
    5540 1.8233628e-14   -1316.1069 5.320176e-10    21832.202    3.1868027    27.948972 
    5550 1.9103589e-14   -1316.1069 -1.9895953e-09    21832.202    3.1868027    27.948972 
    5560 1.9912846e-14   -1316.1069 2.2944765e-10    21832.202    3.1868027    27.948972 
    5570 2.0647791e-14   -1316.1069 1.9194945e-09    21832.202    3.1868027    27.948972 
    5580 2.1296725e-14   -1316.1069 -1.0060491e-09    21832.202    3.1868027    27.948972 
    5590 2.1850623e-14   -1316.1069 -1.5856806e-09    21832.202    3.1868027    27.948972 
    5600 2.2303919e-14   -1316.1069 1.7432631e-09    21832.202    3.1868027    27.948972 
    5610 2.2655287e-14   -1316.1069 8.6112551e-10    21832.202    3.1868027    27.948972 
    5620 2.2908388e-14   -1316.1069 -2.1152234e-09    21832.202    3.1868027    27.948972 
    5630 2.3072546e-14   -1316.1069 5.3584253e-11    21832.202    3.1868027    27.948972 
    5640 2.3163335e-14   -1316.1069 2.1466913e-09    21832.202    3.1868027    27.948972 
    5650 2.320303e-14   -1316.1069 -1.0308182e-09    21832.202    3.1868027    27.948972 
    5660 2.3220896e-14   -1316.1069 -1.7372378e-09    21832.202    3.1868027    27.948972 
    5670 2.3253275e-14   -1316.1069 1.819223e-09    21832.202    3.1868027    27.948972 
    5680 2.3343455e-14   -1316.1069 1.0124704e-09    21832.202    3.1868027    27.948972 
    5690 2.3541271e-14   -1316.1069 -2.2412896e-09    21832.202    3.1868027    27.948972 
    5700 2.3902458e-14   -1316.1069 -7.2291013e-11    21832.202    3.1868027    27.948972 
    5710 2.4487693e-14   -1316.1069 2.3488339e-09    21832.202    3.1868027    27.948972 
    5720 2.536136e-14   -1316.1069 -9.298875e-10    21832.202    3.1868027    27.948972 
    5730 2.659002e-14   -1316.1069 -2.0141168e-09    21832.202    3.1868027    27.948972 
    5740 2.8240607e-14   -1316.1069 1.8196458e-09    21832.202    3.1868027    27.948972 
    5750 3.037838e-14   -1316.1069 1.3407634e-09    21832.202    3.1868027    27.948972 
    5760 3.3064661e-14   -1316.1069 -2.3669335e-09    21832.202    3.1868027    27.948972 
    5770 3.6354416e-14   -1316.1069 -4.7560735e-10    21832.202    3.1868027    27.948972 
    5780 4.0293738e-14   -1316.1069 2.5758116e-09    21832.202    3.1868027    27.948972 
    5790 4.4917305e-14   -1316.1069 -4.7519239e-10    21832.202    3.1868027    27.948972 
    5800 5.0245906e-14   -1316.1069 -2.4425066e-09    21832.202    3.1868027    27.948972 
    5810 5.6284111e-14   -1316.1069 1.416084e-09    21832.202    3.1868027    27.948972 
    5820 6.301821e-14   -1316.1069 1.8450406e-09    21832.202    3.1868027    27.948972 
    5830 7.0414501e-14   -1316.1069 -2.1901074e-09    21832.202    3.1868027    27.948972 
    5840 7.8418056e-14   -1316.1069 -9.5472321e-10    21832.202    3.1868027    27.948972 
    5850 8.6952056e-14   -1316.1069 2.6012363e-09    21832.202    3.1868027    27.948972 
    5860 9.5917798e-14   -1316.1069 -7.1860453e-11    21832.202    3.1868027    27.948972 
    5870 1.0519546e-13   -1316.1069 -2.5437078e-09    21832.202    3.1868027    27.948972 
    5880 1.1464569e-13   -1316.1069 1.0635854e-09    21832.202    3.1868027    27.948972 
    5890 1.2411209e-13   -1316.1069 2.1225643e-09    21832.202    3.1868027    27.948972 
    5900 1.3342464e-13   -1316.1069 -1.98774e-09    21832.202    3.1868027    27.948972 
    5910 1.4240397e-13   -1316.1069 -1.3566511e-09    21832.202    3.1868027    27.948972 
    5920 1.5086663e-13   -1316.1069 2.6278328e-09    21832.202    3.1868027    27.948972 
    5930 1.5863111e-13   -1316.1069 3.8340855e-10    21832.202    3.1868027    27.948972 
    5940 1.6552463e-13   -1316.1069 -2.7938671e-09    21832.202    3.1868027    27.948972 
    5950 1.7139053e-13   -1316.1069 7.6274581e-10    21832.202    3.1868027    27.948972 
    5960 1.7609607e-13   -1316.1069 2.5283685e-09    21832.202    3.1868027    27.948972 
    5970 1.7954045e-13   -1316.1069 -1.8093051e-09    21832.202    3.1868027    27.948972 
    5980 1.8166287e-13   -1316.1069 -1.834193e-09    21832.202    3.1868027    27.948972 
    5990 1.8245016e-13   -1316.1069 2.5544292e-09    21832.202    3.1868027    27.948972 
    6000 1.8194393e-13   -1316.1069 8.6531763e-10    21832.202    3.1868027    27.948972 
    6010 1.8024675e-13   -1316.1069 -2.9420189e-09    21832.202    3.1868027    27.948972 
    6020 1.7752712e-13   -1316.1069 2.8677484e-10    21832.202    3.1868027    27.948972 
    6030 1.7402288e-13   -1316.1069 2.9100658e-09    21832.202    3.1868027    27.948972 
    6040 1.7004271e-13   -1316.1069 -1.4275917e-09    21832.202    3.1868027    27.948972 
    6050 1.6596557e-13   -1316.1069 -2.4103939e-09    21832.202    3.1868027    27.948972 
    6060 1.6223763e-13   -1316.1069 2.4581494e-09    21832.202    3.1868027    27.948972 
    6070 1.5936671e-13   -1316.1069 1.398786e-09    21832.202    3.1868027    27.948972 
    6080 1.5791393e-13   -1316.1069 -3.0391214e-09    21832.202    3.1868027    27.948972 
    6090 1.5848259e-13   -1316.1069 -8.8253497e-11    21832.202    3.1868027    27.948972 
    6100 1.6170431e-13   -1316.1069 3.1406133e-09    21832.202    3.1868027    27.948972 
    6110 1.6822256e-13   -1316.1069 -1.297413e-09    21832.202    3.1868027    27.948972 
    6120 1.7867377e-13   -1316.1069 -2.6341337e-09    21832.202    3.1868027    27.948972 
    6130 1.9366644e-13   -1316.1069 2.4352356e-09    21832.202    3.1868027    27.948972 
    6140 2.1375865e-13   -1316.1069 1.6280614e-09    21832.202    3.1868027    27.948972 
    6150 2.3943453e-13   -1316.1069 -3.1883263e-09    21832.202    3.1868027    27.948972 
    6160 2.7108043e-13   -1316.1069 -2.6300067e-10    21832.202    3.1868027    27.948972 
    6170 3.0896149e-13   -1316.1069 3.3432695e-09    21832.202    3.1868027    27.948972 
    6180 3.5319952e-13   -1316.1069 -1.1715429e-09    21832.202    3.1868027    27.948972 
    6190 4.0375294e-13   -1316.1069 -2.9114311e-09    21832.202    3.1868027    27.948972 
    6200 4.6040001e-13   -1316.1069 2.4101786e-09    21832.202    3.1868027    27.948972 
    6210  5.22726e-13   -1316.1069 1.9050105e-09    21832.202    3.1868027    27.948972 
    6220 5.9011543e-13   -1316.1069 -3.2401018e-09    21832.202    3.1868027    27.948972 
    6230 6.6175024e-13   -1316.1069 -5.9151837e-10    21832.202    3.1868027    27.948972 
    6240 7.3661459e-13   -1316.1069 3.5449865e-09    21832.202    3.1868027    27.948972 
    6250 8.1350696e-13   -1316.1069 -8.6772675e-10    21832.202    3.1868027    27.948972 
    6260 8.9106013e-13   -1316.1069 -3.1622506e-09    21832.202    3.1868027    27.948972 
    6270 9.6776933e-13   -1316.1069 2.1599176e-09    21832.202    3.1868027    27.948972 
    6280 1.0420284e-12   -1316.1069 2.3124636e-09    21832.202    3.1868027    27.948972 
    6290 1.1121738e-12   -1316.1069 -3.1085736e-09    21832.202    3.1868027    27.948972 
    6300 1.1765367e-12   -1316.1069 -1.0642777e-09    21832.202    3.1868027    27.948972 
    6310 1.2335004e-12   -1316.1069 3.5783929e-09    21832.202    3.1868027    27.948972 
    6320 1.2815645e-12   -1316.1069 -4.2867264e-10    21832.202    3.1868027    27.948972 
    6330 1.3194122e-12   -1316.1069 -3.5025903e-09    21832.202    3.1868027    27.948972 
    6340 1.3459802e-12   -1316.1069 1.9229228e-09    21832.202    3.1868027    27.948972 
    6350 1.3605284e-12   -1316.1069 2.7584363e-09    21832.202    3.1868027    27.948972 
    6360 1.3627076e-12   -1316.1069 -3.037729e-09    21832.202    3.1868027    27.948972 
    6370 1.3526229e-12   -1316.1069 -1.5460661e-09    21832.202    3.1868027    27.948972 
    6380 1.3308888e-12   -1316.1069 3.7043908e-09    21832.202    3.1868027    27.948972 
    6390 1.2986754e-12   -1316.1069 5.1646344e-11    21832.202    3.1868027    27.948972 
    6400 1.2577411e-12   -1316.1069 -3.8021104e-09    21832.202    3.1868027    27.948972 
    6410 1.2104506e-12   -1316.1069 1.5494447e-09    21832.202    3.1868027    27.948972 
    6420 1.1597746e-12   -1316.1069 3.1676165e-09    21832.202    3.1868027    27.948972 
    6430 1.1092708e-12   -1316.1069 -2.9057433e-09    21832.202    3.1868027    27.948972 
    6440 1.0630427e-12   -1316.1069 -1.9427835e-09    21832.202    3.1868027    27.948972 
    6450 1.0256769e-12   -1316.1069 3.7354857e-09    21832.202    3.1868027    27.948972 
    6460 1.0021573e-12   -1316.1069 3.8504376e-10    21832.202    3.1868027    27.948972 
    6470  9.97757e-13   -1316.1069 -3.9001462e-09    21832.202    3.1868027    27.948972 
    6480 1.0179089e-12   -1316.1069 1.1970261e-09    21832.202    3.1868027    27.948972 
    6490 1.068057e-12   -1316.1069 3.4431926e-09    21832.202    3.1868027    27.948972 
    6500 1.1534909e-12   -1316.1069 -2.6589253e-09    21832.202    3.1868027    27.948972 
    6510 1.279168e-12   -1316.1069 -2.3808636e-09    21832.202    3.1868027    27.948972 
    6520 1.449527e-12   -1316.1069 3.6972246e-09    21832.202    3.1868027    27.948972 
    6530 1.6682991e-12   -1316.1069 8.4750226e-10    21832.202    3.1868027    27.948972 
    6540 1.9383217e-12   -1316.1069 -4.122443e-09    21832.202    3.1868027    27.948972 
    6550 2.2613633e-12   -1316.1069 8.6907264e-10    21832.202    3.1868027    27.948972 
    6560 2.6379646e-12   -1316.1069 3.793828e-09    21832.202    3.1868027    27.948972 
    6570 3.0673045e-12   -1316.1069 -2.5387663e-09    21832.202    3.1868027    27.948972 
    6580 3.5470984e-12   -1316.1069 -2.6916516e-09    21832.202    3.1868027    27.948972 
    6590 4.0735353e-12   -1316.1069 3.6127196e-09    21832.202    3.1868027    27.948972 
    6600 4.6412606e-12   -1316.1069 1.2407112e-09    21832.202    3.1868027    27.948972 
    6610 5.243411e-12   -1316.1069 -4.1807602e-09    21832.202    3.1868027    27.948972 
    6620 5.8717054e-12   -1316.1069 6.1246027e-10    21832.202    3.1868027    27.948972 
    6630 6.5165955e-12   -1316.1069 4.0198636e-09    21832.202    3.1868027    27.948972 
    6640 7.1674785e-12   -1316.1069 -2.3816717e-09    21832.202    3.1868027    27.948972 
    6650 7.8129706e-12   -1316.1069 -3.0815141e-09    21832.202    3.1868027    27.948972 
    6660 8.4412393e-12   -1316.1069 3.7124717e-09    21832.202    3.1868027    27.948972 
    6670 9.0403904e-12   -1316.1069 1.5284094e-09    21832.202    3.1868027    27.948972 
    6680 9.5989027e-12   -1316.1069 -4.3338228e-09    21832.202    3.1868027    27.948972 
    6690  1.01061e-11   -1316.1069 2.9785987e-10    21832.202    3.1868027    27.948972 
    6700 1.0552649e-11   -1316.1069 4.2519899e-09    21832.202    3.1868027    27.948972 
    6710 1.0931073e-11   -1316.1069 -2.156582e-09    21832.202    3.1868027    27.948972 
    6720 1.1236255e-11   -1316.1069 -3.418185e-09    21832.202    3.1868027    27.948972 
    6730 1.1465926e-11   -1316.1069 3.6714324e-09    21832.202    3.1868027    27.948972 
    6740 1.1621111e-11   -1316.1069 1.9100155e-09    21832.202    3.1868027    27.948972 
    6750 1.1706513e-11   -1316.1069 -4.5901506e-09    21832.202    3.1868027    27.948972 
    6760 1.1730821e-11   -1316.1069 -1.6958785e-11    21832.202    3.1868027    27.948972 
    6770 1.1706918e-11   -1316.1069 4.6078147e-09    21832.202    3.1868027    27.948972 
    6780 1.1651968e-11   -1316.1069 -1.8889843e-09    21832.202    3.1868027    27.948972 
    6790 1.158738e-11   -1316.1069 -3.8963758e-09    21832.202    3.1868027    27.948972 
    6800 1.1538619e-11   -1316.1069 3.5287012e-09    21832.202    3.1868027    27.948972 
    6810 1.1534865e-11   -1316.1069 2.4275349e-09    21832.202    3.1868027    27.948972 
    6820 1.1608515e-11   -1316.1069 -4.5771524e-09    21832.202    3.1868027    27.948972 
    6830 1.1794522e-11   -1316.1069 -5.874613e-10    21832.202    3.1868027    27.948972 
    6840 1.2129586e-11   -1316.1069 4.8617167e-09    21832.202    3.1868027    27.948972 
    6850 1.2651202e-11   -1316.1069 -1.4439733e-09    21832.202    3.1868027    27.948972 
    6860 1.3396584e-11   -1316.1069 -4.2979998e-09    21832.202    3.1868027    27.948972 
    6870 1.4401496e-11   -1316.1069 3.2849917e-09    21832.202    3.1868027    27.948972 
    6880 1.569902e-11   -1316.1069 2.9707009e-09    21832.202    3.1868027    27.948972 
    6890 1.7318288e-11   -1316.1069 -4.6356039e-09    21832.202    3.1868027    27.948972 
    6900 1.9283241e-11   -1316.1069 -1.0462292e-09    21832.202    3.1868027    27.948972 
    6910 2.1611445e-11   -1316.1069 5.1632858e-09    21832.202    3.1868027    27.948972 
    6920 2.4313025e-11   -1316.1069 -1.0623118e-09    21832.202    3.1868027    27.948972 
    6930 2.7389765e-11   -1316.1069 -4.8154352e-09    21832.202    3.1868027    27.948972 
    6940 3.0834436e-11   -1316.1069 3.1082195e-09    21832.202    3.1868027    27.948972 
    6950 3.4630393e-11   -1316.1069 3.5187784e-09    21832.202    3.1868027    27.948972 
    6960 3.8751503e-11   -1316.1069 -4.5913856e-09    21832.202    3.1868027    27.948972 
    6970 4.3162431e-11   -1316.1069 -1.6239762e-09    21832.202    3.1868027    27.948972 
    6980 4.7819341e-11   -1316.1069 5.3357441e-09    21832.202    3.1868027    27.948972 
    6990 5.2671014e-11   -1316.1069 -6.3366544e-10    21832.202    3.1868027    27.948972 
    7000 5.7660421e-11   -1316.1069 -5.1038653e-09    21832.202    3.1868027    27.948972 
    7010 6.2726735e-11   -1316.1069 2.7968308e-09    21832.202    3.1868027    27.948972 
    7020 6.7807765e-11   -1316.1069 4.0527206e-09    21832.202    3.1868027    27.948972 
    7030 7.2842799e-11   -1316.1069 -4.5614416e-09    21832.202    3.1868027    27.948972 
    7040 7.7775785e-11   -1316.1069 -2.1620934e-09    21832.202    3.1868027    27.948972 
    7050 8.2558799e-11   -1316.1069 5.5249855e-09    21832.202    3.1868027    27.948972 
    7060  8.71557e-11   -1316.1069 -1.1133832e-10    21832.202    3.1868027    27.948972 
    7070 9.154589e-11   -1316.1069 -5.528017e-09    21832.202    3.1868027    27.948972 
    7080 9.5728051e-11   -1316.1069 2.4385223e-09    21832.202    3.1868027    27.948972 
    7090 9.9723724e-11   -1316.1069 4.4954124e-09    21832.202    3.1868027    27.948972 
    7100 1.0358062e-10   -1316.1069 -4.3283784e-09    21832.202    3.1868027    27.948972 
    7110 1.0737549e-10   -1316.1069 -2.6989873e-09    21832.202    3.1868027    27.948972 
    7120 1.1121641e-10   -1316.1069 5.4721961e-09    21832.202    3.1868027    27.948972 
    7130 1.1524441e-10   -1316.1069 3.5905691e-10    21832.202    3.1868027    27.948972 
    7140 1.1963418e-10   -1316.1069 -5.7342193e-09    21832.202    3.1868027    27.948972 
    7150 1.2459393e-10   -1316.1069 2.0187638e-09    21832.202    3.1868027    27.948972 
    7160 1.3036408e-10   -1316.1069 4.9771621e-09    21832.202    3.1868027    27.948972 
    7170 1.3721496e-10   -1316.1069 -4.1269127e-09    21832.202    3.1868027    27.948972 
    7180 1.454433e-10   -1316.1069 -3.2802797e-09    21832.202    3.1868027    27.948972 
    7190 1.5536765e-10   -1316.1069 5.5494585e-09    21832.202    3.1868027    27.948972 
    7200 1.6732264e-10   -1316.1069 9.9553467e-10    21832.202    3.1868027    27.948972 
    7210 1.816524e-10   -1316.1069 -6.0723073e-09    21832.202    3.1868027    27.948972 
    7220 1.9870303e-10   -1316.1069 1.5471138e-09    21832.202    3.1868027    27.948972 
    7230 2.1881451e-10   -1316.1069 5.465961e-09    21832.202    3.1868027    27.948972 
    7240 2.4231227e-10   -1316.1069 -3.8709467e-09    21832.202    3.1868027    27.948972 
    7250 2.6949859e-10   -1316.1069 -3.8634164e-09    21832.202    3.1868027    27.948972 
    7260 3.0064442e-10   -1316.1069 5.5699748e-09    21832.202    3.1868027    27.948972 
    7270 3.3598172e-10   -1316.1069 1.4593224e-09    21832.202    3.1868027    27.948972 
    7280 3.7569691e-10   -1316.1069 -6.1501202e-09    21832.202    3.1868027    27.948972 
    7290 4.1992582e-10   -1316.1069 1.1388197e-09    21832.202    3.1868027    27.948972 
    7300 4.687505e-10   -1316.1069 5.7321517e-09    21832.202    3.1868027    27.948972 
    7310 5.2219847e-10   -1316.1069 -3.554831e-09    21832.202    3.1868027    27.948972 
    7320 5.8024453e-10   -1316.1069 -4.3123049e-09    21832.202    3.1868027    27.948972 
    7330 6.4281583e-10   -1316.1069 5.4935962e-09    21832.202    3.1868027    27.948972 
    7340 7.0980027e-10   -1316.1069 2.1191665e-09    21832.202    3.1868027    27.948972 
    7350 7.8105842e-10   -1316.1069 -6.3485777e-09    21832.202    3.1868027    27.948972 
    7360 8.5643937e-10   -1316.1069 5.8480189e-10    21832.202    3.1868027    27.948972 
    7370 9.3580024e-10   -1316.1069 6.2635773e-09    21832.202    3.1868027    27.948972 
    7380 1.0190294e-09   -1316.1069 -3.0434686e-09    21832.202    3.1868027    27.948972 
    7390 1.1060734e-09   -1316.1069 -4.9021237e-09    21832.202    3.1868027    27.948972 
    7400 1.1969664e-09   -1316.1069 5.1857695e-09    21832.202    3.1868027    27.948972 
    7410 1.2918635e-09   -1316.1069 2.8900609e-09    21832.202    3.1868027    27.948972 
    7420 1.3910747e-09   -1316.1069 -6.3371567e-09    21832.202    3.1868027    27.948972 
    7430 1.495101e-09   -1316.1069 -1.7308338e-10    21832.202    3.1868027    27.948972 
    7440 1.6046712e-09   -1316.1069 6.5495213e-09    21832.202    3.1868027    27.948972 
    7450 1.7207774e-09   -1316.1069 -2.5681576e-09    21832.202    3.1868027    27.948972 
    7460 1.8447098e-09   -1316.1069 -5.4687997e-09    21832.202    3.1868027    27.948972 
    7470 1.9780882e-09   -1316.1069 4.9475093e-09    21832.202    3.1868027    27.948972 
    7480 2.1228907e-09   -1316.1069 3.4962656e-09    21832.202    3.1868027    27.948972 
    7490 2.2814771e-09   -1316.1069 -6.5398249e-09    21832.202    3.1868027    27.948972 
    7500 2.4566071e-09   -1316.1069 -6.6391762e-10    21832.202    3.1868027    27.948972 
    7510 2.6514516e-09   -1316.1069 6.8761969e-09    21832.202    3.1868027    27.948972 
    7520 2.8695976e-09   -1316.1069 -2.3253021e-09    21832.202    3.1868027    27.948972 
    7530 3.1150454e-09   -1316.1069 -5.9925142e-09    21832.202    3.1868027    27.948972 
    7540 3.3921976e-09   -1316.1069 4.8620534e-09    21832.202    3.1868027    27.948972 
    7550 3.7058418e-09   -1316.1069 3.8949975e-09    21832.202    3.1868027    27.948972 
    7560 4.0611251e-09   -1316.1069 -6.6023763e-09    21832.202    3.1868027    27.948972 
    7570 4.463524e-09   -1316.1069 -1.2321324e-09    21832.202    3.1868027    27.948972 
    7580 4.9188088e-09   -1316.1069 7.1319157e-09    21832.202    3.1868027    27.948972 
    7590 5.4330053e-09   -1316.1069 -1.8918807e-09    21832.202    3.1868027    27.948972 
    7600 6.0123565e-09   -1316.1069 -6.4250911e-09    21832.202    3.1868027    27.948972 
    7610 6.6632858e-09   -1316.1069 4.5790481e-09    21832.202    3.1868027    27.948972 
    7620 7.3923656e-09   -1316.1069 4.5041724e-09    21832.202    3.1868027    27.948972 
    7630 8.2062949e-09   -1316.1069 -6.4662721e-09    21832.202    3.1868027    27.948972 
    7640 9.111888e-09   -1316.1069 -1.6481606e-09    21832.202    3.1868027    27.948972 
    7650 1.0116081e-08   -1316.1069 7.3970928e-09    21832.202    3.1868027    27.948972 
    7660 1.1225958e-08   -1316.1069 -1.1368117e-09    21832.202    3.1868027    27.948972 
    7670 1.2448801e-08   -1316.1069 -6.6198489e-09    21832.202    3.1868027    27.948972 
    7680 1.379217e-08   -1316.1069 4.4814249e-09    21832.202    3.1868027    27.948972 
    7690 1.5264011e-08   -1316.1069 5.4103304e-09    21832.202    3.1868027    27.948972 
    7700 1.6872809e-08   -1316.1069 -6.1644592e-09    21832.202    3.1868027    27.948972 
    7710 1.8627771e-08   -1316.1069 -2.0732401e-09    21832.202    3.1868027    27.948972 
    7720 2.0539052e-08   -1316.1069 8.1049103e-09    21832.202    3.1868027    27.948972 
    7730 2.2618031e-08   -1316.1069 -3.8982097e-10    21832.202    3.1868027    27.948972 
    7740 2.4877623e-08   -1316.1069 -6.8710877e-09    21832.202    3.1868027    27.948972 
    7750 2.7332638e-08   -1316.1069 4.4788067e-09    21832.202    3.1868027    27.948972 
    7760 3.0000191e-08   -1316.1069 6.4149177e-09    21832.202    3.1868027    27.948972 
    7770 3.2900143e-08   -1316.1069 -5.7668905e-09    21832.202    3.1868027    27.948972 
    7780 3.6055589e-08   -1316.1069 -2.4859555e-09    21832.202    3.1868027    27.948972 
    7790 3.9493381e-08   -1316.1069 8.5744127e-09    21832.202    3.1868027    27.948972 
    7800 4.3244682e-08   -1316.1069 3.4515122e-10    21832.202    3.1868027    27.948972 
    7810 4.7345548e-08   -1316.1069 -7.1445056e-09    21832.202    3.1868027    27.948972 
    7820 5.1837533e-08   -1316.1069 4.2759433e-09    21832.202    3.1868027    27.948972 
    7830 5.6768306e-08   -1316.1069 7.0956349e-09    21832.202    3.1868027    27.948972 
    7840 6.2192289e-08   -1316.1069 -5.6518595e-09    21832.202    3.1868027    27.948972 
    7850 6.8171289e-08   -1316.1069 -3.3039265e-09    21832.202    3.1868027    27.948972 
    7860 7.477514e-08   -1316.1069 8.6432711e-09    21832.202    3.1868027    27.948972 
    7870 8.2082345e-08   -1316.1069 1.0523353e-09    21832.202    3.1868027    27.948972 
    7880 9.0180712e-08   -1316.1069 -7.8458292e-09    21832.202    3.1868027    27.948972 
    7890 9.9167991e-08   -1316.1069 3.6781446e-09    21832.202    3.1868027    27.948972 
    7900 1.0915251e-07   -1316.1069 7.6746937e-09    21832.202    3.1868027    27.948972 
    7910 1.2025384e-07   -1316.1069 -5.5696333e-09    21832.202    3.1868027    27.948972 
    7920 1.3260342e-07   -1316.1069 -3.9112367e-09    21832.202    3.1868027    27.948972 
    7930 1.4634532e-07   -1316.1069 9.1215279e-09    21832.202    3.1868027    27.948972 
    7940 1.6163693e-07   -1316.1069 2.0629528e-09    21832.202    3.1868027    27.948972 
    7950 1.7864982e-07   -1316.1069 -7.7438187e-09    21832.202    3.1868027    27.948972 
    7960 1.9757064e-07   -1316.1069 3.8799817e-09    21832.202    3.1868027    27.948972 
    7970 2.1860218e-07   -1316.1069 9.510403e-09    21832.202    3.1868027    27.948972 
    7980 2.419646e-07   -1316.1069 -4.0320666e-09    21832.202    3.1868027    27.948972 
    7990 2.6789685e-07   -1316.1069 -3.1021798e-09    21832.202    3.1868027    27.948972 
    8000 2.9665832e-07   -1316.1069 1.1172298e-08    21832.202    3.1868027    27.948972 
    8010 3.285309e-07   -1316.1069 5.2847501e-09    21832.202    3.1868027    27.948972 
    8020 3.6382124e-07   -1316.1069 -5.4087629e-09    21832.202    3.1868027    27.948972 
    8030 4.0286357e-07   -1316.1069 6.6122961e-09    21832.202    3.1868027    27.948972 
    8040 4.4602288e-07   -1316.1069 1.3773982e-08    21832.202    3.1868027    27.948972 
    8050 4.9369874e-07   -1316.1069 4.5579144e-10    21832.202    3.1868027    27.948972 
    8060 5.4632962e-07   -1316.1069 6.7633562e-10    21832.202    3.1868027    27.948972 
    8070 6.0439795e-07   -1316.1069 1.6232988e-08    21832.202    3.1868027    27.948972 
    8080 6.6843586e-07   -1316.1069 1.1462084e-08    21832.202    3.1868027    27.948972 
    8090 7.3903176e-07   -1316.1069 4.7543789e-11    21832.202    3.1868027    27.948972 
    8100 8.1683772e-07   -1316.1069 1.224536e-08    21832.202    3.1868027    27.948972 
    8110 9.0257784e-07   -1316.1069 2.119246e-08    21832.202    3.1868027    27.948972 
    8120 9.9705754e-07   -1316.1069 7.7841594e-09    21832.202    3.1868027    27.948972 
    8130 1.101174e-06   -1316.1069 7.1489742e-09    21832.202    3.1868027    27.948972 
    8140 1.2159275e-06   -1316.1069 2.3922389e-08    21832.202    3.1868027    27.948972 
    8150 1.3424342e-06   -1316.1069 2.0534757e-08    21832.202    3.1868027    27.948972 
    8160 1.4819403e-06   -1316.1069 8.0371601e-09    21832.202    3.1868027    27.948972 
    8170 1.6358365e-06   -1316.1069 2.0207017e-08    21832.202    3.1868027    27.948972 
    8180 1.8056755e-06   -1316.1069 3.0919883e-08    21832.202    3.1868027    27.948972 
    8190 1.9931897e-06   -1316.1069 1.7866304e-08    21832.202    3.1868027    27.948972 
    8200 2.2003107e-06   -1316.1069 1.6451266e-08    21832.202    3.1868027    27.948972 
    8210 2.4291914e-06   -1316.1069 3.4503771e-08    21832.202    3.1868027    27.948972 
    8220 2.6822282e-06   -1316.1069 3.2725259e-08    21832.202    3.1868027    27.948972 
    8230 2.9620874e-06   -1316.1069 2.0507827e-08    21832.202    3.1868027    27.948972 
    8240 3.2717317e-06   -1316.1069 3.3111296e-08    21832.202    3.1868027    27.948972 
    8250 3.6144506e-06   -1316.1069 4.6522733e-08    21832.202    3.1868027    27.948972 
    8260 3.9938931e-06   -1316.1069 3.5204483e-08    21832.202    3.1868027    27.948972 
    8270 4.4141028e-06   -1316.1069 3.4724978e-08    21832.202    3.1868027    27.948972 
    8280 4.8795574e-06   -1316.1069 5.5769591e-08    21832.202    3.1868027    27.948972 
    8290 5.3952114e-06   -1316.1069 5.7933045e-08    21832.202    3.1868027    27.948972 
    8300 5.9665433e-06   -1316.1069 4.810199e-08    21832.202    3.1868027    27.948972 
    8310 6.5996076e-06   -1316.1069 6.4038337e-08    21832.202    3.1868027    27.948972 
    8320 7.3010927e-06   -1316.1069 8.3211381e-08    21832.202    3.1868027    27.948972 
    8330 8.078385e-06   -1316.1069 7.711825e-08    21832.202    3.1868027    27.948972 
    8340 8.9396397e-06   -1316.1069 8.1100112e-08    21832.202    3.1868027    27.948972 
    8350 9.8938603e-06   -1316.1069 1.0906044e-07    21832.202    3.1868027    27.948972 
    8360 1.0950987e-05   -1316.1069 1.1959653e-07    21832.202    3.1868027    27.948972 
    8370 1.2121997e-05   -1316.1069 1.1676917e-07    21832.202    3.1868027    27.948972 
    8380 1.3419011e-05   -1316.1069 1.405882e-07    21832.202    3.1868027    27.948972 
    8390 1.485542e-05   -1316.1069  1.70667e-07    21832.202    3.1868027    27.948972 
    8400 1.6446023e-05   -1316.1069 1.7544422e-07    21832.202    3.1868027    27.948972 
    8410 1.820718e-05   -1316.1069 1.8902015e-07    21832.202    3.1868027    27.948972 
    8420 2.0156983e-05   -1316.1069 2.2970622e-07    21832.202    3.1868027    27.948972 
    8430 2.2315454e-05   -1316.1069 2.5509249e-07    21832.202    3.1868027    27.948972 
    8440 2.470475e-05   -1316.1069 2.6538663e-07    21832.202    3.1868027    27.948972 
    8450 2.7349412e-05   -1316.1069 3.0372592e-07    21832.202    3.1868027    27.948972 
    8460 3.0276627e-05   -1316.1069 3.5232482e-07    21832.202    3.1868027    27.948972 
    8470 3.3516522e-05   -1316.1069 3.7531035e-07    21832.202    3.1868027    27.948972 
    8480 3.7102499e-05   -1316.1069 4.0676157e-07    21832.202    3.1868027    27.948972 
    8490 4.1071598e-05   -1316.1069 4.6926223e-07    21832.202    3.1868027    27.948973 
    8500 4.5464902e-05   -1316.1069 5.194958e-07    21832.202    3.1868027    27.948973 
    8510 5.032799e-05   -1316.1069 5.5399101e-07    21832.202    3.1868027    27.948973 
    8520 5.5711434e-05   -1316.1069 6.1909911e-07    21832.202    3.1868027    27.948973 
    8530 6.1671353e-05   -1316.1069 6.9992592e-07    21832.202    3.1868027    27.948973 
    8540 6.8270022e-05   -1316.1069 7.571976e-07    21832.202    3.1868027    27.948973 
    8550 7.5576549e-05   -1316.1069 8.2451479e-07    21832.202    3.1868027    27.948973 
    8560 8.3667623e-05   -1316.1069 9.2899962e-07    21832.202    3.1868027    27.948973 
    8570 9.262834e-05   -1316.1069 1.0273811e-06    21832.202    3.1868027    27.948973 
    8580 0.00010255311   -1316.1069 1.1127327e-06    21832.202    3.1868027    27.948973 
[...]
  219050    98.725257   -995.88617    6.3722274    25857.087    2.6907486    29.570581 
  219060    97.771601   -996.28926    39.034003    25814.619    2.6951751    29.554384 
  219070    96.803925   -996.46391    71.876978    25773.259    2.6995003    29.538591 
  219080    95.860457   -996.69925     102.5065    25733.968    2.7036219    29.523573 
  219090     94.98168   -996.99027    130.09641    25697.644    2.7074436    29.509676 
  219100    94.208886   -997.26034    154.28419    25665.084    2.7108783    29.497207 
  219110    93.571875    -997.7165    173.31723    25636.976    2.7138505    29.486435 
  219120    93.088776   -998.04178    188.33263     25613.87    2.7162986    29.477574 
  219130    92.771816   -998.48496    197.67272     25596.18    2.7181759    29.470786 
  219140    92.619033   -999.30575    199.79636    25584.156    2.7194534    29.466171 
  219150    92.621779   -999.82489    198.29879    25577.883    2.7201204    29.463762 
  219160    92.766293   -1000.5353     190.7729    25577.299    2.7201825    29.463538 
  219170    93.039645   -1000.7498    181.17093    25582.209    2.7196604    29.465423 
  219180    93.435641   -1001.4319    164.86127    25592.335    2.7185844     29.46931 
  219190    93.953954   -1001.7511    146.78326    25607.252    2.7170006    29.475035 
  219200    94.604157    -1001.838    126.90531    25626.452     2.714965      29.4824 
  219210    95.412526    -1001.711    105.84145    25649.391    2.7125369    29.491194 
  219220    96.410794   -1001.7028    82.594999    25675.471    2.7097816    29.501186 
  219230    97.626768   -1001.7758    58.136054    25704.044    2.7067694    29.512125 
  219240    99.064378   -1002.2383    31.601021    25734.404    2.7035762     29.52374 
  219250    100.66929   -1001.9998     9.308809    25765.808     2.700281    29.535744 
  219260    102.31436   -1001.6666   -11.572916    25797.605    2.6969527    29.547889 
  219270    103.82761   -1001.4251   -31.822327    25829.171    2.6936567    29.559936 
  219280    105.05899   -1000.4581    -46.98986    25859.922    2.6904536    29.571662 
  219290    105.92115    -1000.127   -63.918037    25889.374    2.6873929    29.582884 
  219300    106.39828   -999.43843   -77.050787    25917.052    2.6845229    29.593423 
  219310    106.52086   -998.58602   -86.981693    25942.539    2.6818855    29.603121 
  219320    106.33563   -997.93993   -95.290786    25965.512    2.6795127    29.611856 
  219330    105.88708   -997.30378   -100.72979    25985.729    2.6774281    29.619539 
  219340    105.21886   -996.12197   -100.31177    26003.035    2.6756461    29.626114 
  219350     104.3715   -994.82592   -96.324964    26017.418     2.674167    29.631575 
  219360    103.38525   -993.77963   -90.837232    26028.972    2.6729799    29.635961 
  219370    102.30144   -992.41791   -81.205119    26037.867    2.6720668    29.639336 
  219380    101.16463       -990.7   -67.612406    26044.384    2.6713982    29.641808 
  219390    100.01753   -989.56552   -55.410703    26048.903    2.6709347    29.643523 
  219400    98.901215   -988.25973   -41.198767      26051.8    2.6706378    29.644622 
  219410    97.857284   -987.28401   -28.073485    26053.477    2.6704658    29.645258 
  219420    96.922587   -985.95656   -13.005296    26054.345    2.6703769    29.645587 
  219430    96.129612   -985.16393   -1.0491431    26054.834    2.6703268    29.645772 
  219440    95.499205   -984.47682     9.604267    26055.311    2.6702779    29.645953 
  219450    95.046618   -983.97577    18.207488    26056.086    2.6701984    29.646247 
  219460    94.783478   -983.24699      26.6222    26057.434    2.6700603    29.646759 
  219470    94.720066   -982.56437    33.205904    26059.596    2.6698388    29.647578 
  219480    94.865736   -982.42447    35.238887    26062.746    2.6695162    29.648773 
  219490    95.225523   -982.21581    35.808701    26066.965    2.6690841    29.650373 
  219500    95.796108   -982.05787    34.273292    26072.281    2.6685398    29.652388 
  219510    96.570844   -982.09837    29.926169    26078.652    2.6678879    29.654803 
  219520    97.531306   -982.35748    22.790674    26085.954    2.6671411    29.657571 
  219530    98.647406   -982.35996     15.51475    26093.987    2.6663201    29.660615 
  219540    99.872512   -982.50462    6.2539127    26102.528    2.6654476     29.66385 
  219550    101.15287   -983.01548   -5.8482534    26111.283    2.6645539    29.667166 
  219560    102.43222   -983.42729   -18.012582    26119.902    2.6636746    29.670431 
  219570    103.65062   -984.22147   -32.297018    26128.022    2.6628468    29.673505 
  219580    104.75711   -985.04747    -46.39114    26135.222    2.6621132     29.67623 
  219590       105.71   -985.72699   -58.858984    26141.078    2.6615169    29.678447 
  219600    106.47327   -986.25071     -69.1899    26145.205    2.6610967    29.680008 
  219610    107.02587    -986.8914   -78.386564    26147.289    2.6608846    29.680797 
  219620    107.35522   -986.99212   -82.727993    26147.061    2.6609079    29.680711 
  219630    107.45616   -987.52174    -86.96466    26144.357     2.661183    29.679687 
  219640    107.32829   -987.60643   -86.417565    26139.059    2.6617225    29.677682 
  219650     106.9834   -987.61034   -82.873201    26131.161    2.6625269    29.674693 
  219660    106.43818   -988.04403   -78.985513    26120.756    2.6635875    29.670754 
  219670    105.72342   -987.68578   -68.548438    26107.979    2.6648911    29.665915 
  219680    104.88255   -987.43722   -56.452796    26093.106      2.66641    29.660281 
  219690     103.9698   -987.13185   -42.201813    26076.491     2.668109    29.653984 
  219700    103.04198   -986.55929   -25.195088    26058.559     2.669945    29.647185 
  219710    102.15867   -986.18431   -8.4062938     26039.79    2.6718695    29.640066 
  219720    101.37264   -986.00744    7.5316076    26020.687     2.673831    29.632816 
  219730    100.72147   -986.14348    21.399486    26001.727    2.6757808    29.625617 
  219740    100.22809   -986.37906    33.753201    25983.323     2.677676    29.618625 
  219750    99.901861   -986.88281    43.276076    25965.842    2.6794787    29.611982 
  219760     99.74013   -987.44303    50.770284    25949.575    2.6811583    29.605797 
  219770    99.723613   -987.87505    57.029317     25934.75     2.682691    29.600157 
  219780      99.8245   -988.44897    60.602806    25921.551     2.684057    29.595135 
  219790    100.01182   -989.55234    59.570669    25910.077    2.6852456    29.590768 
  219800    100.24764   -990.25959    58.946523    25900.315    2.6862576    29.587051 
  219810    100.49703   -990.75259    58.022122     25892.25    2.6870944     29.58398 
  219820    100.72123   -991.45246    54.822654    25885.855    2.6877582    29.581544 
  219830    100.89325   -992.23038    50.268398    25881.045    2.6882577    29.579712 
  219840    100.99166   -992.32437    48.545502    25877.715    2.6886037    29.578443 
  219850    101.00599   -992.38701    46.399962    25875.808    2.6888019    29.577716 
  219860    100.93319   -992.80874    41.886976    25875.259    2.6888588    29.577507 
  219870     100.7795   -992.46868    40.888518    25875.976    2.6887844     29.57778 
  219880    100.55938   -992.41721    37.896704    25877.912    2.6885833    29.578518 
  219890    100.29529   -992.33946    34.483113    25880.991    2.6882633    29.579691 
  219900     100.0146   -992.32002    30.119192    25885.118    2.6878347    29.581263 
  219910    99.745712   -992.17401    25.669208    25890.182     2.687309    29.583192 
  219920    99.516219   -992.20766    19.461362    25896.063    2.6866988    29.585432 
  219930    99.346917   -992.32517    11.984062    25902.592    2.6860215    29.587918 
  219940    99.249101   -992.51621    3.3760935    25909.552       2.6853    29.590568 
  219950    99.226765   -992.49263   -4.6898669    25916.703    2.6845591     29.59329 
  219960     99.27163   -992.95684   -15.627527    25923.793    2.6838248    29.595988 
  219970     99.36582   -993.19987   -25.440863    25930.506      2.68313    29.598543 
  219980    99.494308   -993.59966   -35.761929    25936.546    2.6825052    29.600841 
  219990     99.63782    -994.2606   -46.809628    25941.608    2.6819818    29.602766 
  220000    99.775364   -994.84429   -56.503665    25945.349    2.6815951    29.604189 
  220010    99.887586   -995.45934    -65.13105     25947.46    2.6813769    29.604992 
  220020    99.959613    -996.0759   -72.300303    25947.671    2.6813551    29.605072 
  220030     99.97323   -996.46428   -76.646584    25945.759    2.6815527    29.604345 
  220040    99.909942   -997.00967   -80.048054    25941.559    2.6819868    29.602748 
  220050    99.753726   -997.41208   -80.860454    25934.951    2.6826702    29.600234 
  220060    99.494885   -997.91735   -80.311603    25925.884    2.6836084    29.596784 
  220070    99.127879   -998.32744   -77.360027    25914.362    2.6848016    29.592399 
  220080    98.648293   -998.89961   -73.372519    25900.431    2.6862457    29.587095 
  220090    98.072657   -999.53706   -67.871115    25884.175    2.6879327    29.580904 
  220100    97.429145    -1000.071   -60.036662    25865.736    2.6898489    29.573878 
  220110    96.754261   -1000.6018   -50.491199    25845.306    2.6919751     29.56609 
  220120    96.089059   -1001.3065   -40.308319    25823.145    2.6942853    29.557637 
  220130    95.469861    -1002.015   -28.792363    25799.533    2.6967511    29.548626 
  220140     94.93111   -1002.7121   -16.092875    25774.796    2.6993393    29.539178 
  220150     94.49361   -1002.8343   0.43100795    25749.301     2.702012    29.529436 
  220160     94.17068   -1003.5156    14.455987    25723.499    2.7047222    29.519569 
  220170     93.97181   -1003.9538     29.76749    25697.806    2.7074265    29.509738 
  220180    93.904407   -1004.4792    44.180871    25672.651    2.7100793    29.500106 
  220190     93.97886   -1004.9641    57.882596    25648.462    2.7126352    29.490838 
  220200    94.206888   -1005.5552    69.611204    25625.645    2.7150505     29.48209 
  220210    94.601659   -1005.9852    80.328275    25604.548    2.7172875    29.473997 
  220220     95.17138   -1006.9372    86.050581    25585.482    2.7193125     29.46668 
  220230    95.916413   -1007.8565    89.435837    25568.655    2.7211021    29.460218 
  220240    96.829564   -1009.1366    88.318401    25554.178    2.7226436    29.454657 
  220250    97.894768   -1010.3984    84.791866    25542.052    2.7239362    29.449997 
  220260    99.076376   -1011.4827     79.90531    25532.206    2.7249867    29.446213 
  220270     100.3331    -1012.473    73.527838    25524.524    2.7258068    29.443259 
  220280    101.61996   -1013.5496    65.073795     25518.84    2.7264139    29.441074 
  220290    102.89262   -1014.5058    56.015639     25514.95    2.7268295    29.439578 
  220300    104.10765   -1015.6794    44.946881    25512.609    2.7270798    29.438677 
  220310    105.22578   -1016.5805    34.812991     25511.54     2.727194    29.438266 
  220320    106.21347   -1017.0477    26.785313    25511.487    2.7271997    29.438246 
  220330    107.03674   -1017.5071    18.881693    25512.227    2.7271207     29.43853 
  220340      107.662   -1017.8194     12.08203    25513.541    2.7269802    29.439036 
  220350    108.05873   -1018.0477    6.2690171     25515.24    2.7267986    29.439689 
  220360     108.1899   -1018.1749    1.6807912    25517.165    2.7265928     29.44043 
  220370    108.02281   -1018.2961   -2.0939572    25519.189    2.7263766    29.441208 
  220380    107.52271   -1017.9965   -2.8665258    25521.216    2.7261601    29.441987 
  220390    106.65004   -1016.9569   0.89259675    25523.227    2.7259453     29.44276 
  220400      105.386    -1016.498    1.9653837    25525.287    2.7257253    29.443553 
  220410    103.74791   -1015.6641    5.1405038    25527.463    2.7254929    29.444389 
  220420    101.81553   -1014.9599    7.5659457     25529.84    2.7252392    29.445303 
  220430    99.732502   -1014.0077    11.134158    25532.505    2.7249548    29.446328 
  220440    97.685635   -1013.2071    13.689066    25535.566    2.7246281    29.447505 
  220450    95.841157   -1012.1946    17.033705    25539.125    2.7242484    29.448872 
  220460    94.307088   -1011.5873    17.691049    25543.257    2.7238077    29.450461 
  220470    93.133209   -1010.5499    19.763831    25548.017    2.7233003     29.45229 
  220480    92.328289   -1010.2741     16.66531    25553.459    2.7227203    29.454381 
  220490    91.876006   -1010.2603    10.884355    25559.518    2.7220748    29.456709 
  220500     91.75067   -1009.9199     5.579329    25566.043      2.72138    29.459215 
  220510    91.915028   -1010.0402   -3.2106342    25572.878    2.7206527     29.46184 
  220520    92.329162   -1010.0957   -12.348806    25579.792    2.7199174    29.464495 
  220530    92.945803   -1010.5029   -23.553799    25586.515    2.7192027    29.467076 
  220540    93.714537   -1011.2315      -36.108    25592.721    2.7185433    29.469459 
  220550    94.584648   -1011.9814     -47.8456    25598.034     2.717979    29.471498 
  220560      95.5135   -1012.3702   -56.222715    25602.109    2.7175464    29.473061 
  220570     96.45971   -1012.5371   -61.567433    25604.669    2.7172747    29.474044 
  220580    97.391211   -1013.3019   -67.897397    25605.502    2.7171863    29.474363 
  220590    98.276353   -1013.5713   -69.276825    25604.407    2.7173025    29.473943 
  220600    99.093381   -1014.0583   -69.392305    25601.278    2.7176346    29.472743 
  220610     99.82901   -1014.1597   -65.106368    25596.081    2.7181864    29.470748 
  220620    100.47685   -1014.0872   -57.674045    25588.893      2.71895    29.467989 
  220630    101.03579   -1014.2511   -49.454292    25579.868    2.7199093    29.464524 
  220640    101.50531   -1014.3194   -38.923674    25569.199    2.7210441    29.460427 
  220650     101.8853   -1014.4713   -27.291064    25557.165    2.7223254    29.455805 
  220660    102.17493   -1014.2912   -12.635823    25544.078    2.7237201    29.450776 
  220670    102.37336   -1014.2932    2.0315993    25530.324    2.7251875    29.445489 
  220680    102.47825   -1014.1275    18.241439    25516.318    2.7266833    29.440104 
  220690    102.48717   -1014.0809    34.148708    25502.503    2.7281605    29.434789 
  220700    102.39937   -1013.9012    50.725435    25489.351    2.7295681    29.429729 
  220710    102.21063   -1013.5992    67.507873    25477.362    2.7308526    29.425114 
  220720    101.91964   -1013.2387    83.715512    25467.049    2.7319585    29.421143 
  220730    101.53548   -1012.6764    99.651565     25458.92    2.7328308    29.418012 
  220740    101.06857   -1012.0398     114.1428    25453.476    2.7334153    29.415915 
  220750    100.53574   -1011.1206    127.76536    25451.206    2.7336591    29.415041 
  220760    99.959817    -1010.529    136.75785    25452.571    2.7335125    29.415567 
  220770    99.367097   -1009.5527     144.4118    25457.925    2.7329376    29.417629 
  220780     98.78617   -1008.5869    148.18643    25467.576    2.7319019    29.421346 
  220790    98.251787   -1007.6174    147.80192    25481.744     2.730383    29.426801 
  220800    97.795924   -1006.7222    142.60597    25500.539    2.7283705    29.434034 
  220810     97.45202   -1006.0779    131.61979    25523.923     2.725871    29.443028 
  220820    97.241052   -1005.3731    116.62248    25551.698    2.7229079    29.453704 
  220830    97.186455   -1004.1749    100.22228    25583.562    2.7195165    29.465943 
  220840    97.301863   -1003.4795    77.652194    25619.123    2.7157417    29.479589 
  220850    97.596813   -1002.7243    52.559107    25657.819    2.7116459    29.494424 
  220860    98.079511   -1001.8819    25.901656    25698.977    2.7073031    29.510186 
  220870    98.761238    -1001.252   -2.9856229    25741.843    2.7027949    29.526584 
  220880    99.639079   -1000.9044   -33.560096    25785.597    2.6982086    29.543304 
  220890    100.69283   -1000.5687   -63.511749    25829.342    2.6936389    29.560001 
  220900    101.87095   -1000.2205   -91.920536    25872.161    2.6891809    29.576327 
  220910    103.09429   -999.71831   -117.38952    25913.162     2.684926    29.591942 
  220920    104.26305   -998.74935   -137.78869     25951.52    2.6809574    29.606536 
  220930    105.28382   -998.30984   -157.90259    25986.518    2.6773467    29.619839 
  220940     106.0938   -997.61804   -173.31805    26017.477     2.674161    29.631597 
  220950    106.66015   -997.49266   -187.99574    26043.811     2.671457    29.641591 
  220960     106.9867   -996.36226   -193.59464    26065.025    2.6692827    29.649637 
  220970     107.0939   -995.97074   -199.05496    26080.789    2.6676693    29.655613 
  220980    107.01835   -995.32161   -199.20722    26090.855    2.6666401    29.659428 
  220990    106.80085   -994.84362   -196.30731    26095.107    2.6662056    29.661039 
  221000    106.47335   -994.53355    -190.4121     26093.53    2.6663667    29.660441 
  221010    106.05581   -994.56733   -182.50909    26086.207    2.6671153    29.657667 
  221020    105.56495   -994.64931   -171.12957    26073.307    2.6684348    29.652777 
  221030    105.01031   -994.76795   -156.29616    26055.101    2.6702994    29.645873 
  221040    104.39474   -994.70227   -137.02828    26031.966    2.6726725    29.637097 
  221050    103.73065    -995.2017   -117.45631    26004.401    2.6755056    29.626632 
  221060    103.03728   -995.42674   -93.594314    25972.971    2.6787432    29.614691 
  221070    102.34213   -995.62896   -67.242955    25938.355    2.6823182    29.601529 
  221080    101.67697   -995.79679   -38.978573     25901.32    2.6861535    29.587434 
  221090    101.07687   -996.22206    -11.05407    25862.699    2.6901647    29.572721 
  221100    100.57983   -996.64235    17.138236     25823.33     2.694266    29.557707 
  221110    100.21052   -997.02778    44.983538    25784.047    2.6983708    29.542712 
  221120    99.988659   -997.84139    69.339212    25745.674    2.7023927    29.528049 
  221130    99.914982   -998.61728    91.997531    25708.958     2.706252    29.514006 
  221140    99.981386    -999.7432    110.41909    25674.574    2.7098764    29.500842 
  221150    100.16117   -1001.0187    125.27563    25643.081    2.7132045    29.488775 
  221160    100.41718   -1002.2563    137.30232    25614.942     2.716185    29.477985 
  221170    100.70929   -1003.2396     147.4993    25590.529    2.7187761    29.468617 
  221180    100.99834   -1004.2691    154.20967    25570.164    2.7209415    29.460798 
  221182    101.05314   -1004.4444    155.32108      25566.6    2.7213208    29.459429 
Loop time of 21.9876 on 1 procs for 100000 steps with 500 atoms

Performance: 392.949 ns/day, 0.061 hours/ns, 4548.020 timesteps/s
95.1% CPU use with 1 MPI tasks x no OpenMP threads

MPI task timing breakdown:
Section |  min time  |  avg time  |  max time  |%varavg| %total
---------------------------------------------------------------
Pair    | 18.26      | 18.26      | 18.26      |   0.0 | 83.04
Neigh   | 0.49706    | 0.49706    | 0.49706    |   0.0 |  2.26
Comm    | 0.64631    | 0.64631    | 0.64631    |   0.0 |  2.94
Output  | 0.11496    | 0.11496    | 0.11496    |   0.0 |  0.52
Modify  | 2.1815     | 2.1815     | 2.1815     |   0.0 |  9.92
Other   |            | 0.2883     |            |       |  1.31

Nlocal:    500 ave 500 max 500 min
Histogram: 1 0 0 0 0 0 0 0 0 0
Nghost:    1188 ave 1188 max 1188 min
Histogram: 1 0 0 0 0 0 0 0 0 0
Neighs:    10877 ave 10877 max 10877 min
Histogram: 1 0 0 0 0 0 0 0 0 0

Total # of neighbors = 10877
Ave neighs/atom = 21.754
Neighbor list builds = 884
Dangerous builds = 0
Total wall time: 0:00:48
