LAMMPS (7 Aug 2019)
Lattice spacing in x,y,z = 5 5 5
Created orthogonal box = (0 0 0) to (40 40 40)
  1 by 1 by 1 MPI processor grid
Created 2048 atoms
  create_atoms CPU = 0.000761986 secs
WARNING: Using 'neigh_modify every 1 delay 0 check yes' setting during minimization (../min.cpp:168)
Neighbor list info ...
  update every 1 steps, delay 0 steps, check yes
  max neighbors/atom: 2000, page size: 100000
  master list distance cutoff = 8
  ghost atom cutoff = 8
  binsize = 4, bins = 10 10 10
  1 neighbor lists, perpetual/occasional/extra = 1 0 0
  (1) pair lj/cut, perpetual
      attributes: half, newton on
      pair build: half/bin/atomonly/newton
      stencil: half/bin/3d/newton
      bin: standard
Setting up cg style minimization ...
  Unit style    : real
  Current step  : 0
WARNING: Energy due to 1 extra global DOFs will be included in minimizer energies
Per MPI rank memory allocation (min/avg/max) = 5.71 | 5.71 | 5.71 Mbytes
Step Temp PotEng Press Volume Density Lx 
       0            0   -501.62349    42953.781        64000    4.4527949           40 
      10            0   -620.74495    42047.338    64192.192    4.4394632        40.04 
      20            0   -737.58251    41157.658    64384.769    4.4261846        40.08 
      30            0   -852.17307    40284.436     64577.73     4.412959        40.12 
      40            0   -964.55292    39427.372    64771.076     4.399786        40.16 
      50            0   -1074.7578    38586.169    64964.808    4.3866654         40.2 
      60            0   -1182.8229    37760.541    65158.926    4.3735969        40.24 
      70            0   -1288.7828    36950.202     65353.43    4.3605802        40.28 
      80            0   -1392.6716    36154.874    65548.321    4.3476152        40.32 
      90            0   -1494.5227    35374.285    65743.599    4.3347015        40.36 
     100            0   -1594.3691    34608.166    65939.264    4.3218389         40.4 
     110            0   -1692.2433    33856.254    66135.317    4.3090271        40.44 
     120            0   -1788.1772     33118.29    66331.759    4.2962659        40.48 
     130            0   -1882.2023    32394.021    66528.589    4.2835551        40.52 
     140            0   -1974.3494    31683.198    66725.808    4.2708943        40.56 
     150            0    -2064.649    30985.577    66923.416    4.2582834         40.6 
     160            0    -2153.131    30300.919    67121.414    4.2457221        40.64 
     170            0   -2239.8249    29628.987    67319.802    4.2332102        40.68 
     180            0   -2324.7598    28969.551    67518.581    4.2207474        40.72 
     190            0   -2407.9641    28322.385    67717.751    4.2083334        40.76 
     200            0   -2489.4659    27687.265    67917.312    4.1959681         40.8 
     210            0   -2569.2929    27063.974    68117.265    4.1836512        40.84 
     220            0   -2647.4724    26452.298    68317.609    4.1713824        40.88 
     230            0    -2724.031    25852.025    68518.347    4.1591616        40.92 
     240            0   -2798.9952    25262.949    68719.477    4.1469884        40.96 
     250            0   -2872.3908    24684.867        68921    4.1348627           41 
     260            0   -2944.2434    24117.582    69122.917    4.1227843        41.04 
     270            0   -3014.5781    23560.896    69325.228    4.1107528        41.08 
     280            0   -3083.4197    23014.619    69527.933    4.0987681        41.12 
     290            0   -3150.7925    22478.562    69731.033    4.0868299        41.16 
     300            0   -3216.7203     21952.54    69934.528    4.0749381         41.2 
     310            0   -3281.2269    21436.373    70138.419    4.0630924        41.24 
     320            0   -3344.3354    20929.881    70342.705    4.0512925        41.28 
     330            0   -3406.0686    20432.891    70547.388    4.0395383        41.32 
     340            0    -3466.449     19945.23    70752.467    4.0278295        41.36 
     350            0   -3525.4987     19466.73    70957.944    4.0161659         41.4 
     360            0   -3583.2395    18997.225    71163.818    4.0045473        41.44 
     370            0   -3639.6928    18536.554     71370.09    3.9929734        41.48 
     380            0   -3694.8797    18084.557     71576.76    3.9814442        41.52 
     390            0    -3748.821    17641.077    71783.828    3.9699592        41.56 
     400            0   -3801.5371    17205.961    71991.296    3.9585184         41.6 
     410            0   -3853.0481    16779.058    72199.163    3.9471216        41.64 
     420            0   -3903.3737    16360.219     72407.43    3.9357684        41.68 
     430            0   -3952.5336      15949.3    72616.096    3.9244587        41.72 
     440            0   -4000.5467    15546.158    72825.164    3.9131923        41.76 
     450            0   -4047.4321    15150.652    73034.632     3.901969         41.8 
     460            0   -4093.2083    14762.645    73244.502    3.8907886        41.84 
     470            0   -4137.8936    14382.001    73454.773    3.8796509        41.88 
     480            0    -4181.506    14008.589    73665.446    3.8685556        41.92 
     490            0   -4224.0631    13642.278    73876.522    3.8575026        41.96 
     500            0   -4265.5825    13282.939        74088    3.8464916           42 
     510            0   -4306.0813    12930.448    74299.882    3.8355226        42.04 
     520            0   -4345.5763    12584.681    74512.167    3.8245952        42.08 
     530            0   -4384.0843    12245.517    74724.856    3.8137092        42.12 
     540            0   -4421.6215    11912.837     74937.95    3.8028646        42.16 
     550            0   -4458.2042    11586.525    75151.448     3.792061         42.2 
     560            0   -4493.8481    11266.465    75365.351    3.7812983        42.24 
     570            0   -4528.5688    10952.546     75579.66    3.7705763        42.28 
     580            0   -4562.3818    10644.656    75794.375    3.7598948        42.32 
     590            0   -4595.3021    10342.688    76009.496    3.7492535        42.36 
     600            0   -4627.3447    10046.534    76225.024    3.7386525         42.4 
     610            0   -4658.5242    9756.0905    76440.959    3.7280913        42.44 
     620            0   -4688.8549    9471.2543    76657.301    3.7175699        42.48 
     630            0   -4718.3512    9191.9245    76874.051     3.707088        42.52 
     640            0    -4747.027    8918.0022    77091.209    3.6966455        42.56 
     650            0   -4774.8961    8649.3899    77308.776    3.6862422         42.6 
     660            0   -4801.9719    8385.9921    77526.752    3.6758779        42.64 
     670            0   -4828.2679    8127.7151    77745.137    3.6655524        42.68 
     680            0   -4853.7971    7874.4666    77963.932    3.6552655        42.72 
     690            0   -4878.5725    7626.1562    78183.137    3.6450171        42.76 
     700            0   -4902.6067    7382.6951    78402.752     3.634807         42.8 
     710            0   -4925.9124     7143.996    78622.778     3.624635        42.84 
     720            0   -4948.5018    6909.9731    78843.216    3.6145009        42.88 
     730            0    -4970.387    6680.5424    79064.065    3.6044045        42.92 
     740            0     -4991.58    6455.6211    79285.326    3.5943457        42.96 
     750            0   -5012.0926    6235.1282        79507    3.5843243           43 
     760            0   -5031.9362    6018.9839    79729.086    3.5743401        43.04 
     770            0   -5051.1224    5807.1099    79951.586     3.564393        43.08 
     780            0   -5069.6623    5599.4293    80174.499    3.5544827        43.12 
     790            0   -5087.5669    5395.8667    80397.826    3.5446092        43.16 
     800            0   -5104.8471    5196.3478    80621.568    3.5347722         43.2 
     810            0   -5121.5136    5000.7998    80845.724    3.5249715        43.24 
     820            0    -5137.577    4809.1513    81070.296     3.515207        43.28 
     830            0   -5153.0475    4621.3319    81295.282    3.5054786        43.32 
     840            0   -5167.9354    4437.2727    81520.685     3.495786        43.36 
     850            0   -5182.2508    4256.9058    81746.504    3.4861292         43.4 
     860            0   -5196.0034    4080.1648     81972.74    3.4765079        43.44 
     870            0   -5209.2031    3906.9842    82199.392    3.4669219        43.48 
     880            0   -5221.8594    3737.2998    82426.462    3.4573712        43.52 
     890            0   -5233.9817    3571.0487     82653.95    3.4478555        43.56 
     900            0   -5245.5794    3408.1688    82881.856    3.4383747         43.6 
     910            0   -5256.6615    3248.5993    83110.181    3.4289286        43.64 
     920            0   -5267.2371    3092.2805    83338.924    3.4195171        43.68 
     930            0    -5277.315    2939.1536    83568.087      3.41014        43.72 
     940            0   -5286.9039    2789.1611    83797.669    3.4007971        43.76 
     950            0   -5296.0124    2642.2463    84027.672    3.3914884         43.8 
     960            0   -5304.6489    2498.3536    84258.095    3.3822136        43.84 
     970            0   -5312.8218    2357.4284    84488.939    3.3729726        43.88 
     980            0   -5320.5393     2219.417    84720.204    3.3637652        43.92 
     990            0   -5327.8093    2084.2667    84951.891    3.3545913        43.96 
    1000            0   -5334.6398    1951.9257        85184    3.3454507           44 
    1010            0   -5341.0387    1822.3433    85416.531    3.3363433        44.04 
    1020            0   -5347.0136    1695.4695    85649.485     3.327269        44.08 
    1030            0    -5352.572    1571.2551    85882.863    3.3182275        44.12 
    1040            0   -5357.7215    1449.6521    86116.663    3.3092187        44.16 
    1050            0   -5362.4693     1330.613    86350.888    3.3002425         44.2 
    1060            0   -5366.8227    1214.0915    86585.537    3.2912988        44.24 
    1070            0   -5370.7887    1100.0417    86820.611    3.2823873        44.28 
    1080            0   -5374.3743    988.41895     87056.11     3.273508        44.32 
    1090            0   -5377.5865    879.17906    87292.034    3.2646607        44.36 
    1100            0   -5380.4321    772.27878    87528.384    3.2558453         44.4 
    1110            0   -5382.9175    667.67558     87765.16    3.2470615        44.44 
    1120            0   -5385.0495    565.32769    88002.363    3.2383093        44.48 
    1130            0   -5386.8345    465.19409    88239.993    3.2295886        44.52 
    1140            0   -5388.2789    367.23447    88478.051    3.2208991        44.56 
    1150            0   -5389.3888    271.40923    88716.536    3.2122408         44.6 
    1160            0   -5390.1706     177.6795    88955.449    3.2036134        44.64 
    1170            0   -5390.6301    86.007055    89194.791     3.195017        44.68 
    1180            0   -5390.7738 -0.0020174359    89424.704    3.1868025    44.718357 
    1182            0   -5390.7738 -1.211685e-10    89424.698    3.1868027    44.718356 
Loop time of 1.67348 on 1 procs for 1182 steps with 2048 atoms

98.1% CPU use with 1 MPI tasks x no OpenMP threads

Minimization stats:
  Stopping criterion = force tolerance
  Energy initial, next-to-last, final = 
        -501.623485323      -5390.7737629      -5390.7737629
  Force two-norm initial, final = 120276 4.27855e-10
  Force max component initial, final = 120276 4.24051e-10
  Final line search alpha, max atom move = 1 4.24051e-10
  Iterations, force evaluations = 1182 1185

MPI task timing breakdown:
Section |  min time  |  avg time  |  max time  |%varavg| %total
---------------------------------------------------------------
Pair    | 1.4347     | 1.4347     | 1.4347     |   0.0 | 85.73
Neigh   | 0.033338   | 0.033338   | 0.033338   |   0.0 |  1.99
Comm    | 0.024818   | 0.024818   | 0.024818   |   0.0 |  1.48
Output  | 0.0020862  | 0.0020862  | 0.0020862  |   0.0 |  0.12
Modify  | 0          | 0          | 0          |   0.0 |  0.00
Other   |            | 0.1786     |            |       | 10.67

Nlocal:    2048 ave 2048 max 2048 min
Histogram: 1 0 0 0 0 0 0 0 0 0
Nghost:    2583 ave 2583 max 2583 min
Histogram: 1 0 0 0 0 0 0 0 0 0
Neighs:    55296 ave 55296 max 55296 min
Histogram: 1 0 0 0 0 0 0 0 0 0

Total # of neighbors = 55296
Ave neighs/atom = 27
Neighbor list builds = 16
Dangerous builds = 0
Setting up Verlet run ...
  Unit style    : real
  Current step  : 1182
  Time step     : 1
Per MPI rank memory allocation (min/avg/max) = 4.585 | 4.585 | 4.585 Mbytes
Step Temp PotEng Press Volume Density Lx 
    1182            0   -5390.7738 -1.211685e-10    89424.698    3.1868027    44.718356 
    1190 8.4764471e-26   -5390.7738 -4.2236532e-11    89424.698    3.1868027    44.718356 
    1200 4.3097787e-25   -5390.7738 1.1553965e-10    89424.698    3.1868027    44.718356 
    1210 1.0666491e-24   -5390.7738 9.9656634e-11    89424.698    3.1868027    44.718356 
    1220 2.0123577e-24   -5390.7738 -5.7641154e-11    89424.698    3.1868027    44.718356 
    1230 3.334127e-24   -5390.7738 -1.0430776e-10    89424.698    3.1868027    44.718356 
    1240 4.9958068e-24   -5390.7738 5.2836509e-12    89424.698    3.1868027    44.718356 
    1250 7.100072e-24   -5390.7738 9.9442769e-11    89424.698    3.1868027    44.718356 
    1260 9.667832e-24   -5390.7738 5.1932114e-11    89424.698    3.1868027    44.718356 
    1270 1.2804707e-23   -5390.7738 -1.1018497e-10    89424.698    3.1868027    44.718356 
    1280 1.6498983e-23   -5390.7738 -1.0160655e-10    89424.698    3.1868027    44.718356 
    1290 2.0896116e-23   -5390.7738 5.0339828e-11    89424.698    3.1868027    44.718356 
    1300 2.6172592e-23   -5390.7738 1.2324661e-10    89424.698    3.1868027    44.718356 
    1310 3.2215834e-23   -5390.7738 -9.2995413e-12    89424.698    3.1868027    44.718356 
    1320 3.9178058e-23   -5390.7738 -1.0937924e-10    89424.698    3.1868027    44.718356 
    1330 4.7062737e-23   -5390.7738 -3.666904e-11    89424.698    3.1868027    44.718356 
    1340 5.6076567e-23   -5390.7738 9.9960828e-11    89424.698    3.1868027    44.718356 
    1350 6.6196168e-23   -5390.7738 9.4795733e-11    89424.698    3.1868027    44.718356 
    1360  7.67902e-23   -5390.7738 -5.4423829e-11    89424.698    3.1868027    44.718356 
    1370 8.7445365e-23   -5390.7738 -1.0704989e-10    89424.698    3.1868027    44.718356 
    1380 9.7888039e-23   -5390.7738 -1.3505695e-12    89424.698    3.1868027    44.718356 
    1390 1.0848047e-22   -5390.7738 1.1656763e-10    89424.698    3.1868027    44.718356 
    1400 1.1951122e-22   -5390.7738 3.3624761e-11    89424.698    3.1868027    44.718356 
    1410 1.3015936e-22   -5390.7738 -1.0069367e-10    89424.698    3.1868027    44.718356 
    1420 1.398429e-22   -5390.7738 -8.3428809e-11    89424.698    3.1868027    44.718356 
    1430 1.4923951e-22   -5390.7738 6.4468758e-11    89424.698    3.1868027    44.718356 
    1440 1.5864611e-22   -5390.7738 9.9022743e-11    89424.698    3.1868027    44.718356 
    1450 1.6810948e-22   -5390.7738 -7.9722333e-12    89424.698    3.1868027    44.718356 
    1460 1.764715e-22   -5390.7738 -9.7887436e-11    89424.698    3.1868027    44.718356 
    1470 1.8400793e-22   -5390.7738 -4.6220896e-11    89424.698    3.1868027    44.718356 
    1480 1.9184332e-22   -5390.7738 9.9408994e-11    89424.698    3.1868027    44.718356 
    1490 1.995393e-22   -5390.7738 1.032277e-10    89424.698    3.1868027    44.718356 
    1500 2.0684173e-22   -5390.7738 -5.2037822e-11    89424.698    3.1868027    44.718356 
    1510 2.137366e-22   -5390.7738 -1.1014233e-10    89424.698    3.1868027    44.718356 
    1520 2.2163962e-22   -5390.7738 4.318403e-12    89424.698    3.1868027    44.718356 
    1530 2.312206e-22   -5390.7738 1.1406507e-10    89424.698    3.1868027    44.718356 
    1540 2.4210272e-22   -5390.7738 6.015364e-11    89424.698    3.1868027    44.718356 
    1550 2.5461544e-22   -5390.7738 -1.0426092e-10    89424.698    3.1868027    44.718356 
    1560 2.6780854e-22   -5390.7738 -1.2353353e-10    89424.698    3.1868027    44.718356 
    1570 2.8080434e-22   -5390.7738 4.0687293e-11    89424.698    3.1868027    44.718356 
    1580 2.9265555e-22   -5390.7738 1.3073227e-10    89424.698    3.1868027    44.718356 
    1590 3.0338968e-22   -5390.7738 3.1498213e-11    89424.698    3.1868027    44.718356 
    1600 3.1341574e-22   -5390.7738 -1.171668e-10    89424.698    3.1868027    44.718356 
    1610 3.2241009e-22   -5390.7738 -1.2267293e-10    89424.698    3.1868027    44.718356 
    1620 3.2952692e-22   -5390.7738 3.5762424e-11    89424.698    3.1868027    44.718356 
    1630 3.3394956e-22   -5390.7738 1.4523818e-10    89424.698    3.1868027    44.718356 
    1640 3.365058e-22   -5390.7738 5.2415738e-11    89424.698    3.1868027    44.718356 
    1650 3.3966622e-22   -5390.7738 -1.1032495e-10    89424.698    3.1868027    44.718356 
    1660 3.4519297e-22   -5390.7738 -1.5304765e-10    89424.698    3.1868027    44.718356 
    1670 3.5260874e-22   -5390.7738 9.5861064e-12    89424.698    3.1868027    44.718356 
    1680 3.6210591e-22   -5390.7738 1.6314451e-10    89424.698    3.1868027    44.718356 
    1690 3.7423284e-22   -5390.7738 1.0453211e-10    89424.698    3.1868027    44.718356 
    1700 3.8886063e-22   -5390.7738 -5.7483949e-11    89424.698    3.1868027    44.718356 
    1710 4.0609669e-22   -5390.7738 -1.7035715e-10    89424.698    3.1868027    44.718356 
    1720 4.2566171e-22   -5390.7738 -5.4726313e-11    89424.698    3.1868027    44.718356 
    1730 4.4793418e-22   -5390.7738 1.046239e-10    89424.698    3.1868027    44.718356 
    1740 4.7324115e-22   -5390.7738 1.8372868e-10    89424.698    3.1868027    44.718356 
    1750 5.0055609e-22   -5390.7738 1.4773001e-11    89424.698    3.1868027    44.718356 
    1760 5.2912546e-22   -5390.7738 -1.4057613e-10    89424.698    3.1868027    44.718356 
    1770 5.5857828e-22   -5390.7738 -1.4881194e-10    89424.698    3.1868027    44.718356 
    1780 5.8887457e-22   -5390.7738 2.6094694e-12    89424.698    3.1868027    44.718356 
    1790 6.1853356e-22   -5390.7738 1.6693301e-10    89424.698    3.1868027    44.718356 
    1800 6.4644924e-22   -5390.7738 1.2921022e-10    89424.698    3.1868027    44.718356 
    1810 6.7207488e-22   -5390.7738 -2.2376768e-11    89424.698    3.1868027    44.718356 
    1820 6.9490162e-22   -5390.7738 -1.879087e-10    89424.698    3.1868027    44.718356 
    1830 7.1477668e-22   -5390.7738 -1.1682287e-10    89424.698    3.1868027    44.718356 
    1840 7.3105629e-22   -5390.7738 3.3242248e-11    89424.698    3.1868027    44.718356 
    1850 7.444167e-22   -5390.7738 1.9708368e-10    89424.698    3.1868027    44.718356 
    1860 7.5468577e-22   -5390.7738 1.1247826e-10    89424.698    3.1868027    44.718356 
    1870 7.612154e-22   -5390.7738 -3.7383995e-11    89424.698    3.1868027    44.718356 
    1880 7.6408186e-22   -5390.7738 -2.038728e-10    89424.698    3.1868027    44.718356 
    1890 7.6506974e-22   -5390.7738 -1.2543691e-10    89424.698    3.1868027    44.718356 
    1900 7.6276684e-22   -5390.7738 3.4248507e-11    89424.698    3.1868027    44.718356 
    1910 7.5810929e-22   -5390.7738 1.9364869e-10    89424.698    3.1868027    44.718356 
    1920 7.5102845e-22   -5390.7738 1.4893757e-10    89424.698    3.1868027    44.718356 
    1930 7.4336465e-22   -5390.7738 -1.1030818e-10    89424.698    3.1868027    44.718356 
    1940 7.3677415e-22   -5390.7738 -2.1051311e-10    89424.698    3.1868027    44.718356 
    1950 7.3168643e-22   -5390.7738 -8.6655583e-11    89424.698    3.1868027    44.718356 
    1960 7.2874271e-22   -5390.7738 1.6874922e-10    89424.698    3.1868027    44.718356 
    1970 7.2805454e-22   -5390.7738 2.0723327e-10    89424.698    3.1868027    44.718356 
    1980 7.2882791e-22   -5390.7738 -1.334781e-10    89424.698    3.1868027    44.718356 
    1990 7.3139409e-22   -5390.7738 -2.4297758e-10    89424.698    3.1868027    44.718356 
    2000 7.3671832e-22   -5390.7738 -5.359385e-11    89424.698    3.1868027    44.718356 
    2010 7.4470834e-22   -5390.7738 2.3706843e-10    89424.698    3.1868027    44.718356 
    2020 7.5579885e-22   -5390.7738 1.6742851e-10    89424.698    3.1868027    44.718356 
    2030 7.6977373e-22   -5390.7738 -2.7583058e-10    89424.698    3.1868027    44.718356 
    2040 7.8778214e-22   -5390.7738 -1.7979851e-10    89424.698    3.1868027    44.718356 
    2050 8.0960769e-22   -5390.7738 2.5231133e-10    89424.698    3.1868027    44.718356 
    2060 8.3551519e-22   -5390.7738 2.153991e-10    89424.698    3.1868027    44.718356 
    2070 8.6462711e-22   -5390.7738 -3.2296955e-10    89424.698    3.1868027    44.718356 
    2080 8.9809639e-22   -5390.7738 -1.1889213e-10    89424.698    3.1868027    44.718356 
    2090 9.3723348e-22   -5390.7738 3.2540575e-10    89424.698    3.1868027    44.718356 
    2100 9.8109196e-22   -5390.7738 1.4723963e-10    89424.698    3.1868027    44.718356 
    2110 1.0282256e-21   -5390.7738 -3.5744415e-10    89424.698    3.1868027    44.718356 
    2120 1.0791896e-21   -5390.7738 2.1443295e-11    89424.698    3.1868027    44.718356 
    2130 1.1327908e-21   -5390.7738 3.7942261e-10    89424.698    3.1868027    44.718356 
    2140 1.1887241e-21   -5390.7738 -3.2794989e-10    89424.698    3.1868027    44.718356 
    2150 1.247202e-21   -5390.7738 -3.2565083e-10    89424.698    3.1868027    44.718356 
    2160 1.3071943e-21   -5390.7738 3.5566089e-10    89424.698    3.1868027    44.718356 
    2170 1.3673548e-21   -5390.7738 2.1294833e-10    89424.698    3.1868027    44.718356 
    2180 1.4262156e-21   -5390.7738 -4.0510653e-10    89424.698    3.1868027    44.718356 
    2190 1.4836645e-21   -5390.7738 1.1625034e-10    89424.698    3.1868027    44.718356 
    2200 1.540274e-21   -5390.7738 3.979703e-10    89424.698    3.1868027    44.718356 
    2210 1.5960405e-21   -5390.7738 -4.1934832e-10    89424.698    3.1868027    44.718356 
    2220 1.6521536e-21   -5390.7738 -2.9429303e-10    89424.698    3.1868027    44.718356 
    2230 1.7088051e-21   -5390.7738 4.3126748e-10    89424.698    3.1868027    44.718356 
    2240 1.7677769e-21   -5390.7738 -3.7617574e-11    89424.698    3.1868027    44.718356 
    2250 1.8285931e-21   -5390.7738 -4.0455099e-10    89424.698    3.1868027    44.718356 
    2260 1.8895896e-21   -5390.7738 2.7114931e-10    89424.698    3.1868027    44.718356 
    2270 1.9498932e-21   -5390.7738 3.5241182e-10    89424.698    3.1868027    44.718356 
    2280 2.0104944e-21   -5390.7738 -3.7502714e-10    89424.698    3.1868027    44.718356 
    2290 2.0695547e-21   -5390.7738 -1.5302957e-10    89424.698    3.1868027    44.718356 
    2300 2.1282611e-21   -5390.7738 3.8568095e-10    89424.698    3.1868027    44.718356 
    2310 2.1900601e-21   -5390.7738 -1.2065954e-10    89424.698    3.1868027    44.718356 
    2320 2.2555443e-21   -5390.7738 -3.7369012e-10    89424.698    3.1868027    44.718356 
    2330 2.3219649e-21   -5390.7738 3.4963247e-10    89424.698    3.1868027    44.718356 
    2340 2.3887613e-21   -5390.7738 3.5253833e-10    89424.698    3.1868027    44.718356 
    2350 2.4566365e-21   -5390.7738 -4.6944179e-10    89424.698    3.1868027    44.718356 
    2360 2.5231849e-21   -5390.7738 3.7008534e-11    89424.698    3.1868027    44.718356 
    2370 2.5897546e-21   -5390.7738 4.4832222e-10    89424.698    3.1868027    44.718356 
    2380 2.6581459e-21   -5390.7738 -3.7010524e-10    89424.698    3.1868027    44.718356 
    2390 2.7292817e-21   -5390.7738 -3.1325447e-10    89424.698    3.1868027    44.718356 
    2400 2.8060578e-21   -5390.7738 4.1598808e-10    89424.698    3.1868027    44.718356 
    2410 2.8909148e-21   -5390.7738 5.1215818e-11    89424.698    3.1868027    44.718356 
    2420 2.9821661e-21   -5390.7738 -4.3459752e-10    89424.698    3.1868027    44.718356 
    2430 3.0819261e-21   -5390.7738 2.8632978e-10    89424.698    3.1868027    44.718356 
    2440 3.1876952e-21   -5390.7738 4.1704976e-10    89424.698    3.1868027    44.718356 
    2450 3.2970583e-21   -5390.7738 -4.0632311e-10    89424.698    3.1868027    44.718356 
    2460 3.409856e-21   -5390.7738 -1.2361534e-10    89424.698    3.1868027    44.718356 
    2470 3.5256583e-21   -5390.7738 3.9750076e-10    89424.698    3.1868027    44.718356 
    2480 3.6423019e-21   -5390.7738 -2.0102099e-10    89424.698    3.1868027    44.718356 
    2490 3.7617062e-21   -5390.7738 -3.3992526e-10    89424.698    3.1868027    44.718356 
    2500 3.8858616e-21   -5390.7738 3.3841476e-10    89424.698    3.1868027    44.718356 
    2510 4.0164535e-21   -5390.7738 3.5000641e-10    89424.698    3.1868027    44.718356 
    2520 4.1540316e-21   -5390.7738 -3.7287539e-10    89424.698    3.1868027    44.718356 
    2530 4.3004084e-21   -5390.7738 -1.2105811e-10    89424.698    3.1868027    44.718356 
    2540 4.4548467e-21   -5390.7738 3.6822193e-10    89424.698    3.1868027    44.718356 
    2550 4.6169939e-21   -5390.7738 -2.7271203e-11    89424.698    3.1868027    44.718356 
    2560 4.7883032e-21   -5390.7738 -3.8912553e-10    89424.698    3.1868027    44.718356 
    2570 4.9709795e-21   -5390.7738 2.8778258e-10    89424.698    3.1868027    44.718356 
    2580 5.1659982e-21   -5390.7738 3.5163686e-10    89424.698    3.1868027    44.718356 
    2590 5.3732634e-21   -5390.7738 -3.7292543e-10    89424.698    3.1868027    44.718356 
    2600 5.5938623e-21   -5390.7738 -1.9950984e-10    89424.698    3.1868027    44.718356 
    2610 5.8295441e-21   -5390.7738 4.3163527e-10    89424.698    3.1868027    44.718356 
    2620 6.0794495e-21   -5390.7738 -7.3839879e-11    89424.698    3.1868027    44.718356 
    2630 6.3447958e-21   -5390.7738 -4.2075164e-10    89424.698    3.1868027    44.718356 
    2640 6.6235726e-21   -5390.7738 3.5306664e-10    89424.698    3.1868027    44.718356 
    2650 6.9119264e-21   -5390.7738 3.9960067e-10    89424.698    3.1868027    44.718356 
    2660 7.2086057e-21   -5390.7738 -5.1418819e-10    89424.698    3.1868027    44.718356 
    2670 7.5116574e-21   -5390.7738 -1.0533903e-11    89424.698    3.1868027    44.718356 
    2680 7.8229582e-21   -5390.7738 4.9484507e-10    89424.698    3.1868027    44.718356 
    2690 8.1348585e-21   -5390.7738 -3.2619409e-10    89424.698    3.1868027    44.718356 
    2700 8.4462315e-21   -5390.7738 -3.71983e-10    89424.698    3.1868027    44.718356 
    2710  8.75104e-21   -5390.7738 3.9985419e-10    89424.698    3.1868027    44.718356 
    2720 9.0409818e-21   -5390.7738 1.4778459e-10    89424.698    3.1868027    44.718356 
    2730 9.3127341e-21   -5390.7738 -4.51259e-10    89424.698    3.1868027    44.718356 
    2740 9.5630547e-21   -5390.7738 1.6324258e-10    89424.698    3.1868027    44.718356 
    2750 9.7866857e-21   -5390.7738 4.6136335e-10    89424.698    3.1868027    44.718356 
    2760 9.9862405e-21   -5390.7738 -4.5159441e-10    89424.698    3.1868027    44.718356 
    2770 1.0155717e-20   -5390.7738 -1.9846839e-10    89424.698    3.1868027    44.718356 
    2780 1.028922e-20   -5390.7738 5.0936187e-10    89424.698    3.1868027    44.718356 
    2790 1.0378414e-20   -5390.7738 -1.9923689e-10    89424.698    3.1868027    44.718356 
    2800 1.0418681e-20   -5390.7738 -4.3519399e-10    89424.698    3.1868027    44.718356 
    2810 1.0411326e-20   -5390.7738 4.3084709e-10    89424.698    3.1868027    44.718356 
    2820 1.0359394e-20   -5390.7738 2.0983114e-10    89424.698    3.1868027    44.718356 
    2830 1.0266225e-20   -5390.7738 -5.0003944e-10    89424.698    3.1868027    44.718356 
    2840 1.0136883e-20   -5390.7738 1.6316345e-10    89424.698    3.1868027    44.718356 
    2850 9.9770715e-21   -5390.7738 5.1006063e-10    89424.698    3.1868027    44.718356 
    2860 9.7927315e-21   -5390.7738 -4.9864554e-10    89424.698    3.1868027    44.718356 
    2870 9.5969953e-21   -5390.7738 -2.7881117e-10    89424.698    3.1868027    44.718356 
    2880 9.4107408e-21   -5390.7738 5.4133306e-10    89424.698    3.1868027    44.718356 
    2890 9.2487383e-21   -5390.7738 -5.797793e-11    89424.698    3.1868027    44.718356 
    2900 9.121949e-21   -5390.7738 -5.3111383e-10    89424.698    3.1868027    44.718356 
    2910 9.0439717e-21   -5390.7738 3.833158e-10    89424.698    3.1868027    44.718356 
    2920 9.0311784e-21   -5390.7738 3.3690339e-10    89424.698    3.1868027    44.718356 
    2930 9.0975943e-21   -5390.7738 -5.7809246e-10    89424.698    3.1868027    44.718356 
    2940 9.2648221e-21   -5390.7738 2.163287e-11    89424.698    3.1868027    44.718356 
    2950 9.5535252e-21   -5390.7738 5.7287882e-10    89424.698    3.1868027    44.718356 
    2960 9.9801205e-21   -5390.7738 -3.4096317e-10    89424.698    3.1868027    44.718356 
    2970 1.0557525e-20   -5390.7738 -4.3583497e-10    89424.698    3.1868027    44.718356 
    2980 1.1298908e-20   -5390.7738 5.7259077e-10    89424.698    3.1868027    44.718356 
    2990 1.2218383e-20   -5390.7738 1.3166805e-10    89424.698    3.1868027    44.718356 
    3000  1.33267e-20   -5390.7738 -6.0972233e-10    89424.698    3.1868027    44.718356 
    3010 1.4633322e-20   -5390.7738 2.096562e-10    89424.698    3.1868027    44.718356 
    3020 1.6144038e-20   -5390.7738 5.5732744e-10    89424.698    3.1868027    44.718356 
    3030 1.7863319e-20   -5390.7738 -5.4613225e-10    89424.698    3.1868027    44.718356 
    3040 1.9787391e-20   -5390.7738 -1.997281e-10    89424.698    3.1868027    44.718356 
    3050 2.1911133e-20   -5390.7738 5.7271972e-10    89424.698    3.1868027    44.718356 
    3060 2.422817e-20   -5390.7738 -1.2146463e-10    89424.698    3.1868027    44.718356 
    3070 2.672837e-20   -5390.7738 -5.6106511e-10    89424.698    3.1868027    44.718356 
    3080 2.9397028e-20   -5390.7738 4.4760856e-10    89424.698    3.1868027    44.718356 
    3090 3.2215065e-20   -5390.7738 3.5211246e-10    89424.698    3.1868027    44.718356 
    3100 3.5161944e-20   -5390.7738 -6.0957041e-10    89424.698    3.1868027    44.718356 
    3110 3.8206064e-20   -5390.7738 -1.0113728e-11    89424.698    3.1868027    44.718356 
    3120 4.1326453e-20   -5390.7738 5.8831601e-10    89424.698    3.1868027    44.718356 
    3130 4.4496904e-20   -5390.7738 -3.2580494e-10    89424.698    3.1868027    44.718356 
    3140 4.7683888e-20   -5390.7738 -4.2008368e-10    89424.698    3.1868027    44.718356 
    3150 5.0853132e-20   -5390.7738  5.41152e-10    89424.698    3.1868027    44.718356 
    3160 5.3978255e-20   -5390.7738 9.9515554e-11    89424.698    3.1868027    44.718356 
    3170 5.7039135e-20   -5390.7738 -5.9385742e-10    89424.698    3.1868027    44.718356 
    3180 6.0000098e-20   -5390.7738 2.2646538e-10    89424.698    3.1868027    44.718356 
    3190 6.2837054e-20   -5390.7738 5.7261131e-10    89424.698    3.1868027    44.718356 
    3200 6.5532232e-20   -5390.7738 -5.7759435e-10    89424.698    3.1868027    44.718356 
    3210 6.8072411e-20   -5390.7738 -2.781642e-10    89424.698    3.1868027    44.718356 
    3220 7.0446466e-20   -5390.7738 6.3612512e-10    89424.698    3.1868027    44.718356 
    3230 7.2646682e-20   -5390.7738 5.5536799e-12    89424.698    3.1868027    44.718356 
    3240 7.4663053e-20   -5390.7738 -7.0425257e-10    89424.698    3.1868027    44.718356 
    3250 7.6497507e-20   -5390.7738 3.3605741e-10    89424.698    3.1868027    44.718356 
    3260 7.815295e-20   -5390.7738 6.2020771e-10    89424.698    3.1868027    44.718356 
    3270 7.9633722e-20   -5390.7738 -6.0978945e-10    89424.698    3.1868027    44.718356 
    3280 8.0953611e-20   -5390.7738 -3.4153713e-10    89424.698    3.1868027    44.718356 
    3290 8.213175e-20   -5390.7738 6.9903147e-10    89424.698    3.1868027    44.718356 
    3300 8.3200523e-20   -5390.7738  8.45747e-11    89424.698    3.1868027    44.718356 
    3310 8.418457e-20   -5390.7738 -7.9864215e-10    89424.698    3.1868027    44.718356 
    3320 8.5095842e-20   -5390.7738 2.1027198e-10    89424.698    3.1868027    44.718356 
    3330 8.5971257e-20   -5390.7738 8.0909494e-10    89424.698    3.1868027    44.718356 
    3340 8.6839351e-20   -5390.7738 -4.8331835e-10    89424.698    3.1868027    44.718356 
    3350 8.7718921e-20   -5390.7738 -5.6191002e-10    89424.698    3.1868027    44.718356 
    3360 8.8639405e-20   -5390.7738 7.3074758e-10    89424.698    3.1868027    44.718356 
    3370 8.9626096e-20   -5390.7738 3.2076764e-10    89424.698    3.1868027    44.718356 
    3380 9.0702366e-20   -5390.7738 -8.1419842e-10    89424.698    3.1868027    44.718356 
    3390 9.1882431e-20   -5390.7738 2.1511079e-11    89424.698    3.1868027    44.718356 
    3400 9.318051e-20   -5390.7738 8.2470749e-10    89424.698    3.1868027    44.718356 
    3410 9.4601305e-20   -5390.7738 -2.9391193e-10    89424.698    3.1868027    44.718356 
    3420 9.6149718e-20   -5390.7738 -7.038995e-10    89424.698    3.1868027    44.718356 
    3430 9.7826733e-20   -5390.7738 5.5693887e-10    89424.698    3.1868027    44.718356 
    3440 9.9632001e-20   -5390.7738 4.1505763e-10    89424.698    3.1868027    44.718356 
    3450  1.01555e-19   -5390.7738 -7.041206e-10    89424.698    3.1868027    44.718356 
    3460 1.035772e-19   -5390.7738 -1.5280898e-10    89424.698    3.1868027    44.718356 
    3470 1.056843e-19   -5390.7738 7.7806649e-10    89424.698    3.1868027    44.718356 
    3480 1.0786497e-19   -5390.7738 -1.0531445e-10    89424.698    3.1868027    44.718356 
    3490 1.1010077e-19   -5390.7738 -7.2014108e-10    89424.698    3.1868027    44.718356 
    3500 1.1237348e-19   -5390.7738 3.359977e-10    89424.698    3.1868027    44.718356 
    3510 1.1467094e-19   -5390.7738 6.198204e-10    89424.698    3.1868027    44.718356 
    3520 1.1698267e-19   -5390.7738 -6.0931932e-10    89424.698    3.1868027    44.718356 
    3530 1.193108e-19   -5390.7738 -3.2588077e-10    89424.698    3.1868027    44.718356 
    3540 1.2166199e-19   -5390.7738 7.1481946e-10    89424.698    3.1868027    44.718356 
    3550 1.2405272e-19   -5390.7738 -1.0234987e-11    89424.698    3.1868027    44.718356 
    3560 1.2649885e-19   -5390.7738 -7.1992284e-10    89424.698    3.1868027    44.718356 
    3570 1.2904652e-19   -5390.7738 3.3637459e-10    89424.698    3.1868027    44.718356 
    3580 1.3172637e-19   -5390.7738 6.2063749e-10    89424.698    3.1868027    44.718356 
    3590  1.34612e-19   -5390.7738 -6.0884424e-10    89424.698    3.1868027    44.718356 
    3600 1.3780237e-19   -5390.7738 -3.2556497e-10    89424.698    3.1868027    44.718356 
    3610 1.4139004e-19   -5390.7738 7.1422889e-10    89424.698    3.1868027    44.718356 
    3620 1.4545457e-19   -5390.7738 -1.0737375e-11    89424.698    3.1868027    44.718356 
    3630 1.5010787e-19   -5390.7738 -7.1970049e-10    89424.698    3.1868027    44.718356 
    3640 1.5548278e-19   -5390.7738 3.3604521e-10    89424.698    3.1868027    44.718356 
    3650 1.6171893e-19   -5390.7738 6.2014612e-10    89424.698    3.1868027    44.718356 
    3660 1.6896334e-19   -5390.7738 -6.0942199e-10    89424.698    3.1868027    44.718356 
    3670 1.7737349e-19   -5390.7738 -3.2568864e-10    89424.698    3.1868027    44.718356 
    3680 1.8710483e-19   -5390.7738 7.1447057e-10    89424.698    3.1868027    44.718356 
    3690 1.9829325e-19   -5390.7738 -1.0089451e-11    89424.698    3.1868027    44.718356 
    3700 2.1106792e-19   -5390.7738 -7.1971612e-10    89424.698    3.1868027    44.718356 
    3710 2.2556293e-19   -5390.7738 3.2038217e-10    89424.698    3.1868027    44.718356 
    3720 2.4187974e-19   -5390.7738 6.0384454e-10    89424.698    3.1868027    44.718356 
    3730 2.600967e-19   -5390.7738 -5.9353113e-10    89424.698    3.1868027    44.718356 
    3740 2.8028333e-19   -5390.7738 -3.1012463e-10    89424.698    3.1868027    44.718356 
    3750 3.0247308e-19   -5390.7738 7.3038191e-10    89424.698    3.1868027    44.718356 
    3760 3.2666836e-19   -5390.7738 -1.0425809e-11    89424.698    3.1868027    44.718356 
    3770 3.5284322e-19   -5390.7738 -7.3564041e-10    89424.698    3.1868027    44.718356 
    3780 3.8093575e-19   -5390.7738  3.04933e-10    89424.698    3.1868027    44.718356 
    3790 4.1084382e-19   -5390.7738 6.0433415e-10    89424.698    3.1868027    44.718356 
    3800 4.4243401e-19   -5390.7738 -5.9361923e-10    89424.698    3.1868027    44.718356 
    3810 4.7553291e-19   -5390.7738 -3.096944e-10    89424.698    3.1868027    44.718356 
    3820 5.0993642e-19   -5390.7738 7.304799e-10    89424.698    3.1868027    44.718356 
    3830 5.454099e-19   -5390.7738 5.5701325e-12    89424.698    3.1868027    44.718356 
    3840 5.8169017e-19   -5390.7738 -7.1978441e-10    89424.698    3.1868027    44.718356 
    3850 6.1849169e-19   -5390.7738 3.2029494e-10    89424.698    3.1868027    44.718356 
    3860 6.5550763e-19   -5390.7738 6.0447277e-10    89424.698    3.1868027    44.718356 
    3870  6.92428e-19   -5390.7738 -6.2437621e-10    89424.698    3.1868027    44.718356 
    3880 7.2892373e-19   -5390.7738 -3.2579179e-10    89424.698    3.1868027    44.718356 
    3890 7.6467412e-19   -5390.7738 7.3041834e-10    89424.698    3.1868027    44.718356 
    3900 7.9936896e-19   -5390.7738 2.0976422e-11    89424.698    3.1868027    44.718356 
    3910 8.3272088e-19   -5390.7738 -7.0371304e-10    89424.698    3.1868027    44.718356 
    3920 8.6445923e-19   -5390.7738 3.0496279e-10    89424.698    3.1868027    44.718356 
    3930 8.9435041e-19   -5390.7738 5.883924e-10    89424.698    3.1868027    44.718356 
    3940 9.2220766e-19   -5390.7738 -6.2511757e-10    89424.698    3.1868027    44.718356 
    3950 9.4789065e-19   -5390.7738 -3.2606271e-10    89424.698    3.1868027    44.718356 
    3960 9.713064e-19   -5390.7738 7.4622351e-10    89424.698    3.1868027    44.718356 
    3970 9.9244027e-19   -5390.7738 3.7337716e-11    89424.698    3.1868027    44.718356 
    3980 1.0113354e-18   -5390.7738 -7.1991335e-10    89424.698    3.1868027    44.718356 
    3990 1.028106e-18   -5390.7738 2.2579544e-10    89424.698    3.1868027    44.718356 
    4000 1.0429315e-18   -5390.7738 7.4610239e-10    89424.698    3.1868027    44.718356 
    4010 1.0560754e-18   -5390.7738 -4.831454e-10    89424.698    3.1868027    44.718356 
    4020 1.0678725e-18   -5390.7738 -5.3059431e-10    89424.698    3.1868027    44.718356 
    4030 1.0787243e-18   -5390.7738 7.6205394e-10    89424.698    3.1868027    44.718356 
    4040 1.0891152e-18   -5390.7738 2.2603495e-10    89424.698    3.1868027    44.718356 
    4050 1.0995928e-18   -5390.7738 -7.8286095e-10    89424.698    3.1868027    44.718356 
    4060 1.110758e-18   -5390.7738 2.1246722e-11    89424.698    3.1868027    44.718356 
    4070 1.1232602e-18   -5390.7738 7.1501346e-10    89424.698    3.1868027    44.718356 
    4080 1.1378091e-18   -5390.7738 -2.9407682e-10    89424.698    3.1868027    44.718356 
    4090 1.1551394e-18   -5390.7738 -6.729169e-10    89424.698    3.1868027    44.718356 
    4100 1.1760225e-18   -5390.7738 5.8859298e-10    89424.698    3.1868027    44.718356 
    4110 1.2012384e-18   -5390.7738 4.1513953e-10    89424.698    3.1868027    44.718356 
    4120 1.2315697e-18   -5390.7738 -7.9844723e-10    89424.698    3.1868027    44.718356 
    4130 1.2677881e-18   -5390.7738 -1.5240486e-10    89424.698    3.1868027    44.718356 
    4140 1.3106577e-18   -5390.7738 8.2480962e-10    89424.698    3.1868027    44.718356 
    4150 1.3609037e-18   -5390.7738 -1.5202042e-10    89424.698    3.1868027    44.718356 
    4160 1.4192065e-18   -5390.7738 -7.5124365e-10    89424.698    3.1868027    44.718356 
    4170 1.4862005e-18   -5390.7738 3.9948161e-10    89424.698    3.1868027    44.718356 
    4180 1.5624524e-18   -5390.7738 5.7231421e-10    89424.698    3.1868027    44.718356 
    4190 1.6484483e-18   -5390.7738 -6.7273452e-10    89424.698    3.1868027    44.718356 
    4200 1.7445892e-18   -5390.7738 -3.2543861e-10    89424.698    3.1868027    44.718356 
    4210 1.8511964e-18   -5390.7738 7.7807869e-10    89424.698    3.1868027    44.718356 
    4220 1.9684888e-18   -5390.7738 3.7136751e-11    89424.698    3.1868027    44.718356 
    4230 2.0965894e-18   -5390.7738 -8.1417118e-10    89424.698    3.1868027    44.718356 
    4240 2.2355317e-18   -5390.7738 2.7315226e-10    89424.698    3.1868027    44.718356 
    4250 2.385231e-18   -5390.7738 6.9882148e-10    89424.698    3.1868027    44.718356 
    4260 2.5454941e-18   -5390.7738 -5.3062619e-10    89424.698    3.1868027    44.718356 
    4270 2.7160458e-18   -5390.7738 -4.675059e-10    89424.698    3.1868027    44.718356 
    4280 2.8965174e-18   -5390.7738 7.308462e-10    89424.698    3.1868027    44.718356 
    4290 3.0864417e-18   -5390.7738 2.1039834e-10    89424.698    3.1868027    44.718356 
    4300 3.2852733e-18   -5390.7738 -7.9853723e-10    89424.698    3.1868027    44.718356 
    4310 3.492434e-18   -5390.7738 5.2807909e-11    89424.698    3.1868027    44.718356 
    4320 3.707261e-18   -5390.7738 7.9333965e-10    89424.698    3.1868027    44.718356 
    4330 3.9290546e-18   -5390.7738 -3.2526764e-10    89424.698    3.1868027    44.718356 
    4340 4.1571067e-18   -5390.7738 -6.095472e-10    89424.698    3.1868027    44.718356 
    4350 4.390737e-18   -5390.7738 5.8826248e-10    89424.698    3.1868027    44.718356 
    4360 4.6292325e-18   -5390.7738 4.1525471e-10    89424.698    3.1868027    44.718356 
    4370 4.8719432e-18   -5390.7738 -8.7705128e-10    89424.698    3.1868027    44.718356 
    4380 5.1182759e-18   -5390.7738 -1.6780971e-10    89424.698    3.1868027    44.718356 
    4390 5.3677653e-18   -5390.7738 9.1959412e-10    89424.698    3.1868027    44.718356 
    4400 5.6200287e-18   -5390.7738 -3.2601334e-10    89424.698    3.1868027    44.718356 
    4410 5.8748337e-18   -5390.7738 -8.4550597e-10    89424.698    3.1868027    44.718356 
    4420 6.1321325e-18   -5390.7738 6.9882954e-10    89424.698    3.1868027    44.718356 
    4430 6.392068e-18   -5390.7738 5.0979866e-10    89424.698    3.1868027    44.718356 
    4440 6.6549952e-18   -5390.7738 -9.2487691e-10    89424.698    3.1868027    44.718356 
    4450 6.9215126e-18   -5390.7738 -4.1723098e-11    89424.698    3.1868027    44.718356 
    4460 7.1924982e-18   -5390.7738   9.3526e-10    89424.698    3.1868027    44.718356 
    4470 7.4690907e-18   -5390.7738 -4.3580088e-10    89424.698    3.1868027    44.718356 
    4480 7.7527274e-18   -5390.7738 -7.513783e-10    89424.698    3.1868027    44.718356 
    4490 8.0451547e-18   -5390.7738 7.6189685e-10    89424.698    3.1868027    44.718356 
    4500 8.3484262e-18   -5390.7738 4.4666526e-10    89424.698    3.1868027    44.718356 
    4510 8.6648864e-18   -5390.7738 -9.8752172e-10    89424.698    3.1868027    44.718356 
    4520 8.9971742e-18   -5390.7738 5.3007277e-11    89424.698    3.1868027    44.718356 
    4530 9.3481863e-18   -5390.7738 9.824839e-10    89424.698    3.1868027    44.718356 
    4540 9.7210641e-18   -5390.7738 -5.3043001e-10    89424.698    3.1868027    44.718356 
    4550 1.0119157e-17   -5390.7738 -7.6712864e-10    89424.698    3.1868027    44.718356 
    4560 1.0545972e-17   -5390.7738 8.2507383e-10    89424.698    3.1868027    44.718356 
    4570 1.1005091e-17   -5390.7738 3.3676937e-10    89424.698    3.1868027    44.718356 
    4580 1.1500127e-17   -5390.7738 -9.4067442e-10    89424.698    3.1868027    44.718356 
    4590 1.2034661e-17   -5390.7738 1.4746294e-10    89424.698    3.1868027    44.718356 
    4600 1.2612116e-17   -5390.7738 9.1947304e-10    89424.698    3.1868027    44.718356 
    4610 1.3235754e-17   -5390.7738 -5.6204656e-10    89424.698    3.1868027    44.718356 
    4620 1.3908495e-17   -5390.7738 -6.0957329e-10    89424.698    3.1868027    44.718356 
    4630 1.463283e-17   -5390.7738 8.5702044e-10    89424.698    3.1868027    44.718356 
    4640 1.5410778e-17   -5390.7738 2.5738322e-10    89424.698    3.1868027    44.718356 
    4650 1.624376e-17   -5390.7738 -9.8768539e-10    89424.698    3.1868027    44.718356 
    4660 1.7132509e-17   -5390.7738 2.8883899e-10    89424.698    3.1868027    44.718356 
    4670 1.807699e-17   -5390.7738 8.7229371e-10    89424.698    3.1868027    44.718356 
    4680 1.9076341e-17   -5390.7738 -7.5149356e-10    89424.698    3.1868027    44.718356 
    4690 2.0128816e-17   -5390.7738 -5.3097947e-10    89424.698    3.1868027    44.718356 
    4700 2.1231733e-17   -5390.7738 9.9833887e-10    89424.698    3.1868027    44.718356 
    4710 2.2381503e-17   -5390.7738 5.2659489e-11    89424.698    3.1868027    44.718356 
    4720 2.3573617e-17   -5390.7738 -1.0509945e-09    89424.698    3.1868027    44.718356 
    4730 2.4802731e-17   -5390.7738 4.4672576e-10    89424.698    3.1868027    44.718356 
    4740 2.6062711e-17   -5390.7738 8.5625356e-10    89424.698    3.1868027    44.718356 
    4750 2.7346771e-17   -5390.7738 -9.0906817e-10    89424.698    3.1868027    44.718356 
    4760 2.8647642e-17   -5390.7738 -4.5172067e-10    89424.698    3.1868027    44.718356 
    4770 2.9957693e-17   -5390.7738 1.1559071e-09    89424.698    3.1868027    44.718356 
    4780 3.1269209e-17   -5390.7738 -1.6808758e-10    89424.698    3.1868027    44.718356 
    4790 3.2574656e-17   -5390.7738 -1.0822823e-09    89424.698    3.1868027    44.718356 
    4800 3.3866968e-17   -5390.7738 6.204224e-10    89424.698    3.1868027    44.718356 
    4810 3.5139835e-17   -5390.7738 8.5643392e-10    89424.698    3.1868027    44.718356 
    4820 3.6388083e-17   -5390.7738 -1.0506071e-09    89424.698    3.1868027    44.718356 
    4830 3.7608037e-17   -5390.7738 -3.4149927e-10    89424.698    3.1868027    44.718356 
    4840 3.8797859e-17   -5390.7738 1.2032594e-09    89424.698    3.1868027    44.718356 
    4850 3.9957938e-17   -5390.7738 -2.6304988e-10    89424.698    3.1868027    44.718356 
    4860 4.1091264e-17   -5390.7738 -1.1293165e-09    89424.698    3.1868027    44.718356 
    4870 4.2203761e-17   -5390.7738 8.2504563e-10    89424.698    3.1868027    44.718356 
    4880 4.3304605e-17   -5390.7738 8.2514503e-10    89424.698    3.1868027    44.718356 
    4890 4.4406496e-17   -5390.7738 -1.2561935e-09    89424.698    3.1868027    44.718356 
    4900 4.5525884e-17   -5390.7738 -1.9948713e-10    89424.698    3.1868027    44.718356 
    4910 4.6683156e-17   -5390.7738 1.3767058e-09    89424.698    3.1868027    44.718356 
    4920 4.7902704e-17   -5390.7738 -4.3591777e-10    89424.698    3.1868027    44.718356 
    4930 4.921297e-17   -5390.7738 -1.1610124e-09    89424.698    3.1868027    44.718356 
    4940 5.0646363e-17   -5390.7738 1.0298903e-09    89424.698    3.1868027    44.718356 
    4950 5.223906e-17   -5390.7738 7.3095071e-10    89424.698    3.1868027    44.718356 
    4960 5.403077e-17   -5390.7738 -1.4132451e-09    89424.698    3.1868027    44.718356 
    4970 5.6064414e-17   -5390.7738 -1.0465987e-10    89424.698    3.1868027    44.718356 
    4980 5.8385558e-17   -5390.7738 1.4080176e-09    89424.698    3.1868027    44.718356 
    4990 6.1041955e-17   -5390.7738 -5.1475636e-10    89424.698    3.1868027    44.718356 
    5000 6.4082916e-17   -5390.7738 -1.1769889e-09    89424.698    3.1868027    44.718356 
    5010 6.7558507e-17   -5390.7738 1.0776493e-09    89424.698    3.1868027    44.718356 
    5020 7.1518792e-17   -5390.7738 7.3072203e-10    89424.698    3.1868027    44.718356 
    5030 7.6013074e-17   -5390.7738 -1.4134563e-09    89424.698    3.1868027    44.718356 
    5040 8.1089047e-17   -5390.7738 -1.2085621e-10    89424.698    3.1868027    44.718356 
    5050 8.679176e-17   -5390.7738 1.4396065e-09    89424.698    3.1868027    44.718356 
    5060 9.3162977e-17   -5390.7738 -4.832822e-10    89424.698    3.1868027    44.718356 
    5070 1.0024025e-16   -5390.7738 -1.2873233e-09    89424.698    3.1868027    44.718356 
    5080 1.0805619e-16   -5390.7738 1.0454356e-09    89424.698    3.1868027    44.718356 
    5090 1.1663779e-16   -5390.7738 8.7234733e-10    89424.698    3.1868027    44.718356 
    5100 1.2600603e-16   -5390.7738 -1.4130379e-09    89424.698    3.1868027    44.718356 
    5110 1.3617526e-16   -5390.7738 -3.4147486e-10    89424.698    3.1868027    44.718356 
    5120 1.4715304e-16   -5390.7738 1.5973992e-09    89424.698    3.1868027    44.718356 
    5130 1.5894013e-16   -5390.7738 -2.6224952e-10    89424.698    3.1868027    44.718356 
    5140 1.7153056e-16   -5390.7738 -1.4917103e-09    89424.698    3.1868027    44.718356 
    5150 1.8491184e-16   -5390.7738 8.7237201e-10    89424.698    3.1868027    44.718356 
    5160 1.9906579e-16   -5390.7738 1.1719286e-09    89424.698    3.1868027    44.718356 
    5170 2.1396917e-16   -5390.7738 -1.4446314e-09    89424.698    3.1868027    44.718356 
    5180 2.2959452e-16   -5390.7738 -5.1464746e-10    89424.698    3.1868027    44.718356 
    5190 2.459115e-16   -5390.7738 1.6763761e-09    89424.698    3.1868027    44.718356 
    5200 2.6288814e-16   -5390.7738 -1.2058766e-10    89424.698    3.1868027    44.718356 
    5210 2.8049232e-16   -5390.7738 -1.6184134e-09    89424.698    3.1868027    44.718356 
    5220 2.9869349e-16   -5390.7738 8.0953519e-10    89424.698    3.1868027    44.718356 
    5230 3.1746427e-16   -5390.7738 1.2984134e-09    89424.698    3.1868027    44.718356 
    5240 3.3678222e-16   -5390.7738 -1.4288389e-09    89424.698    3.1868027    44.718356 
    5250 3.5663174e-16   -5390.7738 -6.4059931e-10    89424.698    3.1868027    44.718356 
    5260 3.7700572e-16   -5390.7738 1.7551009e-09    89424.698    3.1868027    44.718356 
    5270 3.9790712e-16   -5390.7738 -1.0462392e-10    89424.698    3.1868027    44.718356 
    5280 4.1935067e-16   -5390.7738 -1.7283226e-09    89424.698    3.1868027    44.718356 
    5290 4.4136421e-16   -5390.7738 8.5668522e-10    89424.698    3.1868027    44.718356 
    5300 4.6398969e-16   -5390.7738 1.3452187e-09    89424.698    3.1868027    44.718356 
    5310 4.8728409e-16   -5390.7738 -1.4605625e-09    89424.698    3.1868027    44.718356 
    5320 5.1132022e-16   -5390.7738 -6.729477e-10    89424.698    3.1868027    44.718356 
    5330 5.3618696e-16   -5390.7738 1.7705675e-09    89424.698    3.1868027    44.718356 
    5340 5.6198906e-16   -5390.7738 -8.9057295e-11    89424.698    3.1868027    44.718356 
    5350 5.8884707e-16   -5390.7738 -1.7286968e-09    89424.698    3.1868027    44.718356 
    5360 6.1689669e-16   -5390.7738 8.570691e-10    89424.698    3.1868027    44.718356 
    5370 6.4628776e-16   -5390.7738 1.3770719e-09    89424.698    3.1868027    44.718356 
    5380 6.7718301e-16   -5390.7738 -1.4922458e-09    89424.698    3.1868027    44.718356 
    5390 7.0975694e-16   -5390.7738 -7.5105986e-10    89424.698    3.1868027    44.718356 
    5400 7.4419419e-16   -5390.7738 1.7865309e-09    89424.698    3.1868027    44.718356 
    5410 7.8068763e-16   -5390.7738 5.4929419e-12    89424.698    3.1868027    44.718356 
    5420 8.1943709e-16   -5390.7738 -1.775661e-09    89424.698    3.1868027    44.718356 
    5430 8.606476e-16   -5390.7738 7.4631668e-10    89424.698    3.1868027    44.718356 
    5440 9.0452806e-16   -5390.7738 1.5341471e-09    89424.698    3.1868027    44.718356 
    5450 9.5128981e-16   -5390.7738 -1.4764008e-09    89424.698    3.1868027    44.718356 
    5460 1.0011458e-15   -5390.7738 -9.4058827e-10    89424.698    3.1868027    44.718356 
    5470 1.0543103e-15   -5390.7738 1.9279217e-09    89424.698    3.1868027    44.718356 
    5480 1.1109986e-15   -5390.7738 1.3125251e-10    89424.698    3.1868027    44.718356 
    5490 1.1714279e-15   -5390.7738 -2.0592944e-09    89424.698    3.1868027    44.718356 
    5500 1.2358181e-15   -5390.7738 7.4626826e-10    89424.698    3.1868027    44.718356 
    5510 1.3043937e-15   -5390.7738 1.8026444e-09    89424.698    3.1868027    44.718356 
    5520 1.3773861e-15   -5390.7738 -1.5866188e-09    89424.698    3.1868027    44.718356 
    5530 1.4550368e-15   -5390.7738 -1.1452877e-09    89424.698    3.1868027    44.718356 
    5540 1.5376012e-15   -5390.7738 2.0389243e-09    89424.698    3.1868027    44.718356 
    5550 1.6253525e-15   -5390.7738 2.7295595e-10    89424.698    3.1868027    44.718356 
    5560 1.7185869e-15   -5390.7738 -2.2800843e-09    89424.698    3.1868027    44.718356 
    5570 1.8176282e-15   -5390.7738 7.1436445e-10    89424.698    3.1868027    44.718356 
    5580 1.9228343e-15   -5390.7738 1.9283435e-09    89424.698    3.1868027    44.718356 
    5590 2.0346016e-15   -5390.7738 -1.4920303e-09    89424.698    3.1868027    44.718356 
    5600 2.1533718e-15   -5390.7738 -1.3820591e-09    89424.698    3.1868027    44.718356 
    5610 2.2796367e-15   -5390.7738 2.1177524e-09    89424.698    3.1868027    44.718356 
    5620 2.4139438e-15   -5390.7738 5.2551686e-10    89424.698    3.1868027    44.718356 
    5630 2.5569013e-15   -5390.7738 -2.3117987e-09    89424.698    3.1868027    44.718356 
    5640 2.7091814e-15   -5390.7738 3.8367858e-10    89424.698    3.1868027    44.718356 
    5650 2.8715246e-15   -5390.7738 2.1646969e-09    89424.698    3.1868027    44.718356 
    5660 3.0447416e-15   -5390.7738 -1.286721e-09    89424.698    3.1868027    44.718356 
    5670 3.2297151e-15   -5390.7738 -1.6337968e-09    89424.698    3.1868027    44.718356 
    5680 3.4273993e-15   -5390.7738 1.9757965e-09    89424.698    3.1868027    44.718356 
    5690 3.6388202e-15   -5390.7738 8.4091096e-10    89424.698    3.1868027    44.718356 
    5700 3.865073e-15   -5390.7738 -2.3585428e-09    89424.698    3.1868027    44.718356 
    5710 4.1073189e-15   -5390.7738 9.9854983e-11    89424.698    3.1868027    44.718356 
    5720 4.3667817e-15   -5390.7738 2.3224025e-09    89424.698    3.1868027    44.718356 
    5730 4.6447417e-15   -5390.7738 -1.0818818e-09    89424.698    3.1868027    44.718356 
    5740 4.9425315e-15   -5390.7738 -1.8861495e-09    89424.698    3.1868027    44.718356 
    5750 5.2615291e-15   -5390.7738 1.8177564e-09    89424.698    3.1868027    44.718356 
    5760 5.6031521e-15   -5390.7738 1.140365e-09    89424.698    3.1868027    44.718356 
    5770 5.9688517e-15   -5390.7738 -2.2957503e-09    89424.698    3.1868027    44.718356 
    5780 6.360107e-15   -5390.7738 -1.679287e-10    89424.698    3.1868027    44.718356 
    5790 6.7784213e-15   -5390.7738 2.4331101e-09    89424.698    3.1868027    44.718356 
    5800 7.2253183e-15   -5390.7738 -8.4552619e-10    89424.698    3.1868027    44.718356 
    5810 7.7023412e-15   -5390.7738 -2.0276632e-09    89424.698    3.1868027    44.718356 
    5820 8.2110536e-15   -5390.7738 1.7549632e-09    89424.698    3.1868027    44.718356 
    5830 8.7530425e-15   -5390.7738 1.2507087e-09    89424.698    3.1868027    44.718356 
    5840 9.3299245e-15   -5390.7738 -2.3113225e-09    89424.698    3.1868027    44.718356 
    5850 9.9433555e-15   -5390.7738 -3.0953627e-10    89424.698    3.1868027    44.718356 
    5860 1.0595043e-14   -5390.7738 2.5908057e-09    89424.698    3.1868027    44.718356 
    5870 1.1286764e-14   -5390.7738 -7.8272784e-10    89424.698    3.1868027    44.718356 
    5880 1.202038e-14   -5390.7738 -2.2016987e-09    89424.698    3.1868027    44.718356 
    5890 1.2797867e-14   -5390.7738 1.754958e-09    89424.698    3.1868027    44.718356 
    5900 1.3621338e-14   -5390.7738 1.4080576e-09    89424.698    3.1868027    44.718356 
    5910 1.4493072e-14   -5390.7738 -2.4375622e-09    89424.698    3.1868027    44.718356 
    5920 1.5415553e-14   -5390.7738 -4.2036585e-10    89424.698    3.1868027    44.718356 
    5930 1.6391496e-14   -5390.7738 2.6854287e-09    89424.698    3.1868027    44.718356 
    5940 1.7423894e-14   -5390.7738 -7.8210227e-10    89424.698    3.1868027    44.718356 
    5950 1.8516051e-14   -5390.7738 -2.2961076e-09    89424.698    3.1868027    44.718356 
    5960 1.9671623e-14   -5390.7738 1.771427e-09    89424.698    3.1868027    44.718356 
    5970 2.0894659e-14   -5390.7738 1.5978498e-09    89424.698    3.1868027    44.718356 
    5980 2.2189639e-14   -5390.7738 -2.5005399e-09    89424.698    3.1868027    44.718356 
    5990 2.3561514e-14   -5390.7738 -5.9327144e-10    89424.698    3.1868027    44.718356 
    6000 2.5015742e-14   -5390.7738 2.8745511e-09    89424.698    3.1868027    44.718356 
    6010 2.6558321e-14   -5390.7738 -6.7220302e-10    89424.698    3.1868027    44.718356 
    6020 2.8195825e-14   -5390.7738 -2.6110115e-09    89424.698    3.1868027    44.718356 
    6030 2.9935428e-14   -5390.7738 1.7867222e-09    89424.698    3.1868027    44.718356 
    6040 3.1784934e-14   -5390.7738 1.8820157e-09    89424.698    3.1868027    44.718356 
    6050 3.3752797e-14   -5390.7738 -2.5951953e-09    89424.698    3.1868027    44.718356 
    6060 3.5848142e-14   -5390.7738 -7.9788265e-10    89424.698    3.1868027    44.718356 
    6070 3.808078e-14   -5390.7738 3.0163244e-09    89424.698    3.1868027    44.718356 
    6080 4.0461226e-14   -5390.7738 -5.1403359e-10    89424.698    3.1868027    44.718356 
    6090 4.3000714e-14   -5390.7738 -2.8150685e-09    89424.698    3.1868027    44.718356 
    6100 4.5711206e-14   -5390.7738 1.7084345e-09    89424.698    3.1868027    44.718356 
    6110 4.8605412e-14   -5390.7738 2.1653763e-09    89424.698    3.1868027    44.718356 
    6120 5.1696806e-14   -5390.7738 -2.6578979e-09    89424.698    3.1868027    44.718356 
    6130 5.4999646e-14   -5390.7738 -1.0339658e-09    89424.698    3.1868027    44.718356 
    6140 5.8529004e-14   -5390.7738 3.1268581e-09    89424.698    3.1868027    44.718356 
    6150  6.23008e-14   -5390.7738 -2.1503143e-10    89424.698    3.1868027    44.718356 
    6160 6.6331843e-14   -5390.7738 -3.035743e-09    89424.698    3.1868027    44.718356 
    6170 7.063989e-14   -5390.7738 1.4404094e-09    89424.698    3.1868027    44.718356 
    6180 7.5243708e-14   -5390.7738 2.4965721e-09    89424.698    3.1868027    44.718356 
    6190 8.0163157e-14   -5390.7738 -2.4843232e-09    89424.698    3.1868027    44.718356 
    6200 8.5419285e-14   -5390.7738 -1.4274985e-09    89424.698    3.1868027    44.718356 
    6210 9.1034437e-14   -5390.7738 3.0488198e-09    89424.698    3.1868027    44.718356 
    6220 9.7032384e-14   -5390.7738 2.2686105e-10    89424.698    3.1868027    44.718356 
    6230 1.0343847e-13   -5390.7738 -3.2558456e-09    89424.698    3.1868027    44.718356 
    6240 1.1027976e-13   -5390.7738 1.2048359e-09    89424.698    3.1868027    44.718356 
    6250 1.1758524e-13   -5390.7738 2.7651629e-09    89424.698    3.1868027    44.718356 
    6260  1.25386e-13   -5390.7738 -2.3258031e-09    89424.698    3.1868027    44.718356 
    6270 1.3371542e-13   -5390.7738 -1.8373201e-09    89424.698    3.1868027    44.718356 
    6280 1.4260943e-13   -5390.7738 3.1910649e-09    89424.698    3.1868027    44.718356 
    6290 1.521067e-13   -5390.7738 5.1161527e-10    89424.698    3.1868027    44.718356 
    6300 1.622489e-13   -5390.7738 -3.3968859e-09    89424.698    3.1868027    44.718356 
    6310 1.7308097e-13   -5390.7738 1.0006651e-09    89424.698    3.1868027    44.718356 
    6320 1.8465132e-13   -5390.7738 3.0660223e-09    89424.698    3.1868027    44.718356 
    6330 1.9701211e-13   -5390.7738 -2.4037818e-09    89424.698    3.1868027    44.718356 
    6340 2.1021954e-13   -5390.7738 -2.0260355e-09    89424.698    3.1868027    44.718356 
    6350 2.2433402e-13   -5390.7738 3.3341626e-09    89424.698    3.1868027    44.718356 
    6360 2.394205e-13   -5390.7738 7.1778898e-10    89424.698    3.1868027    44.718356 
    6370 2.5554867e-13   -5390.7738 -3.7115311e-09    89424.698    3.1868027    44.718356 
    6380 2.7279323e-13   -5390.7738 7.8068449e-10    89424.698    3.1868027    44.718356 
    6390 2.9123413e-13   -5390.7738 3.4449248e-09    89424.698    3.1868027    44.718356 
    6400 3.109568e-13   -5390.7738 -2.2133043e-09    89424.698    3.1868027    44.718356 
    6410 3.3205242e-13   -5390.7738 -2.5599895e-09    89424.698    3.1868027    44.718356 
    6420 3.5461813e-13   -5390.7738 3.4142417e-09    89424.698    3.1868027    44.718356 
    6430 3.7875736e-13   -5390.7738 1.192279e-09    89424.698    3.1868027    44.718356 
    6440 4.0458007e-13   -5390.7738 -3.9143318e-09    89424.698    3.1868027    44.718356 
    6450 4.3220308e-13   -5390.7738 4.3577898e-10    89424.698    3.1868027    44.718356 
    6460 4.6175041e-13   -5390.7738 3.7620619e-09    89424.698    3.1868027    44.718356 
    6470 4.9335368e-13   -5390.7738 -2.0067194e-09    89424.698    3.1868027    44.718356 
    6480 5.2715252e-13   -5390.7738 -3.0465055e-09    89424.698    3.1868027    44.718356 
    6490 5.6329513e-13   -5390.7738 3.2904428e-09    89424.698    3.1868027    44.718356 
    6500 6.0193883e-13   -5390.7738 1.6358082e-09    89424.698    3.1868027    44.718356 
    6510 6.4325073e-13   -5390.7738 -3.9280547e-09    89424.698    3.1868027    44.718356 
    6520 6.8740849e-13   -5390.7738 -1.4432489e-10    89424.698    3.1868027    44.718356 
    6530 7.346012e-13   -5390.7738 4.0333179e-09    89424.698    3.1868027    44.718356 
    6540 7.8503036e-13   -5390.7738 -1.593826e-09    89424.698    3.1868027    44.718356 
    6550 8.3891099e-13   -5390.7738 -3.3427553e-09    89424.698    3.1868027    44.718356 
    6560 8.9647284e-13   -5390.7738 3.0576714e-09    89424.698    3.1868027    44.718356 
    6570 9.5796179e-13   -5390.7738 2.0491328e-09    89424.698    3.1868027    44.718356 
    6580 1.0236413e-12   -5390.7738 -4.0027199e-09    89424.698    3.1868027    44.718356 
    6590 1.0937943e-12   -5390.7738 -4.233774e-10    89424.698    3.1868027    44.718356 
    6600 1.1687245e-12   -5390.7738 4.211499e-09    89424.698    3.1868027    44.718356 
    6610 1.2487586e-12   -5390.7738 -1.3833801e-09    89424.698    3.1868027    44.718356 
    6620 1.3342487e-12   -5390.7738 -3.7629252e-09    89424.698    3.1868027    44.718356 
    6630 1.4255735e-12   -5390.7738 3.0480064e-09    89424.698    3.1868027    44.718356 
    6640 1.5231418e-12   -5390.7738 2.4811744e-09    89424.698    3.1868027    44.718356 
    6650 1.6273938e-12   -5390.7738 -4.0904528e-09    89424.698    3.1868027    44.718356 
    6660 1.7388042e-12   -5390.7738 -8.1026015e-10    89424.698    3.1868027    44.718356 
    6670 1.8578848e-12   -5390.7738 4.5031891e-09    89424.698    3.1868027    44.718356 
    6680 1.985187e-12   -5390.7738 -9.8086131e-10    89424.698    3.1868027    44.718356 
    6690 2.1213043e-12   -5390.7738 -4.1474766e-09    89424.698    3.1868027    44.718356 
    6700 2.2668756e-12   -5390.7738 2.694762e-09    89424.698    3.1868027    44.718356 
    6710 2.422588e-12   -5390.7738 3.0594112e-09    89424.698    3.1868027    44.718356 
    6720 2.5891792e-12   -5390.7738 -4.0324681e-09    89424.698    3.1868027    44.718356 
    6730 2.7674413e-12   -5390.7738 -1.2718126e-09    89424.698    3.1868027    44.718356 
    6740 2.9582233e-12   -5390.7738 4.530976e-09    89424.698    3.1868027    44.718356 
    6750 3.162435e-12   -5390.7738 -6.5258123e-10    89424.698    3.1868027    44.718356 
    6760 3.3810495e-12   -5390.7738 -4.4017871e-09    89424.698    3.1868027    44.718356 
    6770 3.6151076e-12   -5390.7738 2.5998857e-09    89424.698    3.1868027    44.718356 
    6780 3.8657212e-12   -5390.7738 3.3434056e-09    89424.698    3.1868027    44.718356 
    6790 4.1340772e-12   -5390.7738 -4.0463439e-09    89424.698    3.1868027    44.718356 
    6800 4.4214423e-12   -5390.7738 -1.6317462e-09    89424.698    3.1868027    44.718356 
    6810 4.7291674e-12   -5390.7738 4.8498038e-09    89424.698    3.1868027    44.718356 
    6820 5.058693e-12   -5390.7738 -5.5300733e-10    89424.698    3.1868027    44.718356 
    6830 5.411555e-12   -5390.7738 -4.6792302e-09    89424.698    3.1868027    44.718356 
    6840 5.789391e-12   -5390.7738 2.5443985e-09    89424.698    3.1868027    44.718356 
    6850 6.1939477e-12   -5390.7738 3.6364499e-09    89424.698    3.1868027    44.718356 
    6860 6.6270886e-12   -5390.7738 -4.1301962e-09    89424.698    3.1868027    44.718356 
    6870 7.090803e-12   -5390.7738 -1.9178479e-09    89424.698    3.1868027    44.718356 
    6880 7.5872159e-12   -5390.7738 5.0384541e-09    89424.698    3.1868027    44.718356 
    6890 8.1185992e-12   -5390.7738 -2.2017547e-10    89424.698    3.1868027    44.718356 
    6900 8.6873834e-12   -5390.7738 -4.9902162e-09    89424.698    3.1868027    44.718356 
    6910 9.2961714e-12   -5390.7738 2.3305449e-09    89424.698    3.1868027    44.718356 
    6920 9.9477536e-12   -5390.7738 3.9611119e-09    89424.698    3.1868027    44.718356 
    6930 1.0645123e-11   -5390.7738 -3.9921783e-09    89424.698    3.1868027    44.718356 
    6940 1.1391496e-11   -5390.7738 -2.3287083e-09    89424.698    3.1868027    44.718356 
    6950 1.2190326e-11   -5390.7738 5.104254e-09    89424.698    3.1868027    44.718356 
    6960 1.304533e-11   -5390.7738 1.7951327e-10    89424.698    3.1868027    44.718356 
    6970 1.3960509e-11   -5390.7738 -5.2169045e-09    89424.698    3.1868027    44.718356 
    6980 1.494017e-11   -5390.7738 1.9184262e-09    89424.698    3.1868027    44.718356 
    6990 1.5988955e-11   -5390.7738 4.4672051e-09    89424.698    3.1868027    44.718356 
    7000 1.7111866e-11   -5390.7738 -3.8431858e-09    89424.698    3.1868027    44.718356 
    7010 1.8314296e-11   -5390.7738 -2.9315632e-09    89424.698    3.1868027    44.718356 
    7020 1.9602057e-11   -5390.7738 5.1526081e-09    89424.698    3.1868027    44.718356 
    7030 2.0981414e-11   -5390.7738 7.0715712e-10    89424.698    3.1868027    44.718356 
    7040 2.2459119e-11   -5390.7738 -5.5349574e-09    89424.698    3.1868027    44.718356 
    7050 2.4042446e-11   -5390.7738 1.654386e-09    89424.698    3.1868027    44.718356 
    7060 2.5739228e-11   -5390.7738 4.9039728e-09    89424.698    3.1868027    44.718356 
    7070 2.7557896e-11   -5390.7738 -3.7776395e-09    89424.698    3.1868027    44.718356 
    7080 2.9507521e-11   -5390.7738 -3.2991988e-09    89424.698    3.1868027    44.718356 
    7090 3.1597855e-11   -5390.7738 5.2187603e-09    89424.698    3.1868027    44.718356 
    7100 3.3839377e-11   -5390.7738 1.0179457e-09    89424.698    3.1868027    44.718356 
    7110 3.6243339e-11   -5390.7738 -5.6398528e-09    89424.698    3.1868027    44.718356 
    7120 3.8821818e-11   -5390.7738 1.4019894e-09    89424.698    3.1868027    44.718356 
    7130 4.1587767e-11   -5390.7738 5.1194845e-09    89424.698    3.1868027    44.718356 
    7140 4.455507e-11   -5390.7738 -3.5822599e-09    89424.698    3.1868027    44.718356 
    7150 4.7738603e-11   -5390.7738 -3.7380569e-09    89424.698    3.1868027    44.718356 
    7160 5.1154297e-11   -5390.7738 5.2977993e-09    89424.698    3.1868027    44.718356 
    7170 5.4819208e-11   -5390.7738 1.5842819e-09    89424.698    3.1868027    44.718356 
    7180 5.8751586e-11   -5390.7738 -6.0833776e-09    89424.698    3.1868027    44.718356 
    7190 6.2970962e-11   -5390.7738 1.0220863e-09    89424.698    3.1868027    44.718356 
    7200 6.7498228e-11   -5390.7738 5.7186093e-09    89424.698    3.1868027    44.718356 
    7210 7.2355735e-11   -5390.7738 -3.5628816e-09    89424.698    3.1868027    44.718356 
    7220 7.7567394e-11   -5390.7738 -4.2662385e-09    89424.698    3.1868027    44.718356 
    7230 8.315879e-11   -5390.7738 5.3591326e-09    89424.698    3.1868027    44.718356 
    7240 8.9157302e-11   -5390.7738 2.0472694e-09    89424.698    3.1868027    44.718356 
    7250 9.5592237e-11   -5390.7738 -6.2731032e-09    89424.698    3.1868027    44.718356 
    7260 1.0249498e-10   -5390.7738 6.8607135e-10    89424.698    3.1868027    44.718356 
    7270 1.0989915e-10   -5390.7738 6.0104117e-09    89424.698    3.1868027    44.718356 
    7280 1.1784077e-10   -5390.7738 -3.2397565e-09    89424.698    3.1868027    44.718356 
    7290 1.2635847e-10   -5390.7738 -4.855463e-09    89424.698    3.1868027    44.718356 
    7300 1.3549369e-10   -5390.7738 5.421579e-09    89424.698    3.1868027    44.718356 
    7310 1.4529088e-10   -5390.7738 2.6675495e-09    89424.698    3.1868027    44.718356 
    7320 1.5579779e-10   -5390.7738 -6.6502843e-09    89424.698    3.1868027    44.718356 
    7330 1.6706568e-10   -5390.7738 1.3193259e-10    89424.698    3.1868027    44.718356 
    7340 1.7914965e-10   -5390.7738 6.6712187e-09    89424.698    3.1868027    44.718356 
    7350 1.9210892e-10   -5390.7738 -2.9690959e-09    89424.698    3.1868027    44.718356 
    7360 2.0600718e-10   -5390.7738 -5.490628e-09    89424.698    3.1868027    44.718356 
    7370 2.2091292e-10   -5390.7738 5.3023492e-09    89424.698    3.1868027    44.718356 
    7380 2.3689982e-10   -5390.7738 3.3068129e-09    89424.698    3.1868027    44.718356 
    7390 2.5404717e-10   -5390.7738 -6.8414654e-09    89424.698    3.1868027    44.718356 
    7400 2.7244029e-10   -5390.7738 -3.3165645e-10    89424.698    3.1868027    44.718356 
    7410 2.9217102e-10   -5390.7738 7.0117495e-09    89424.698    3.1868027    44.718356 
    7420 3.1333817e-10   -5390.7738 -2.6216479e-09    89424.698    3.1868027    44.718356 
    7430 3.3604812e-10   -5390.7738 -5.9826367e-09    89424.698    3.1868027    44.718356 
    7440 3.604153e-10   -5390.7738 5.254231e-09    89424.698    3.1868027    44.718356 
    7450 3.865629e-10   -5390.7738 3.7567196e-09    89424.698    3.1868027    44.718356 
    7460 4.1462341e-10   -5390.7738 -6.8948094e-09    89424.698    3.1868027    44.718356 
    7470 4.447394e-10   -5390.7738 -7.6999131e-10    89424.698    3.1868027    44.718356 
    7480 4.7706418e-10   -5390.7738 7.4269995e-09    89424.698    3.1868027    44.718356 
    7490 5.1176264e-10   -5390.7738 -2.4641816e-09    89424.698    3.1868027    44.718356 
    7500 5.4901207e-10   -5390.7738 -6.4340116e-09    89424.698    3.1868027    44.718356 
    7510 5.8900307e-10   -5390.7738 5.2122127e-09    89424.698    3.1868027    44.718356 
    7520 6.3194052e-10   -5390.7738 4.4352309e-09    89424.698    3.1868027    44.718356 
    7530 6.7804458e-10   -5390.7738 -7.2328808e-09    89424.698    3.1868027    44.718356 
    7540 7.2755185e-10   -5390.7738 -1.3406472e-09    89424.698    3.1868027    44.718356 
    7550 7.8071656e-10   -5390.7738 7.9468575e-09    89424.698    3.1868027    44.718356 
    7560 8.3781183e-10   -5390.7738 -1.9729453e-09    89424.698    3.1868027    44.718356 
    7570 8.991311e-10   -5390.7738 -7.1546678e-09    89424.698    3.1868027    44.718356 
    7580 9.6498957e-10   -5390.7738 5.0951325e-09    89424.698    3.1868027    44.718356 
    7590 1.0357259e-09   -5390.7738 5.0202588e-09    89424.698    3.1868027    44.718356 
    7600 1.1117038e-09   -5390.7738 -7.2668543e-09    89424.698    3.1868027    44.718356 
    7610 1.1933142e-09   -5390.7738 -1.9547102e-09    89424.698    3.1868027    44.718356 
    7620 1.2809769e-09   -5390.7738 8.3349191e-09    89424.698    3.1868027    44.718356 
    7630 1.3751431e-09   -5390.7738 -1.5346813e-09    89424.698    3.1868027    44.718356 
    7640 1.4762975e-09   -5390.7738 -7.709815e-09    89424.698    3.1868027    44.718356 
    7650 1.5849611e-09   -5390.7738 4.8521976e-09    89424.698    3.1868027    44.718356 
    7660 1.7016938e-09   -5390.7738 5.8449779e-09    89424.698    3.1868027    44.718356 
    7670 1.8270975e-09   -5390.7738 -7.3739072e-09    89424.698    3.1868027    44.718356 
    7680 1.9618192e-09   -5390.7738 -2.7204862e-09    89424.698    3.1868027    44.718356 
    7690 2.1065545e-09   -5390.7738 8.5271519e-09    89424.698    3.1868027    44.718356 
    7700 2.2620515e-09   -5390.7738 -8.1735551e-10    89424.698    3.1868027    44.718356 
    7710 2.4291146e-09   -5390.7738 -8.1863415e-09    89424.698    3.1868027    44.718356 
    7720 2.6086089e-09   -5390.7738 4.4274126e-09    89424.698    3.1868027    44.718356 
    7730 2.801465e-09   -5390.7738 6.5329162e-09    89424.698    3.1868027    44.718356 
    7740 3.008684e-09   -5390.7738 -7.1249881e-09    89424.698    3.1868027    44.718356 
    7750 3.2313429e-09   -5390.7738 -3.4801913e-09    89424.698    3.1868027    44.718356 
    7760 3.4706002e-09   -5390.7738 8.8231497e-09    89424.698    3.1868027    44.718356 
    7770 3.7277027e-09   -5390.7738 -2.6077059e-10    89424.698    3.1868027    44.718356 
    7780 4.0039915e-09   -5390.7738 -8.7001304e-09    89424.698    3.1868027    44.718356 
    7790  4.30091e-09   -5390.7738 4.1383228e-09    89424.698    3.1868027    44.718356 
    7800 4.6200111e-09   -5390.7738  7.13782e-09    89424.698    3.1868027    44.718356 
    7810 4.9629659e-09   -5390.7738 -7.1108359e-09    89424.698    3.1868027    44.718356 
    7820 5.3315725e-09   -5390.7738 -4.0996884e-09    89424.698    3.1868027    44.718356 
    7830 5.7277659e-09   -5390.7738 9.079882e-09    89424.698    3.1868027    44.718356 
    7840 6.153628e-09   -5390.7738 4.0269598e-10    89424.698    3.1868027    44.718356 
    7850 6.6113991e-09   -5390.7738 -9.1763805e-09    89424.698    3.1868027    44.718356 
    7860  7.10349e-09   -5390.7738 3.8041574e-09    89424.698    3.1868027    44.718356 
    7870 7.6324945e-09   -5390.7738 7.8281981e-09    89424.698    3.1868027    44.718356 
    7880 8.2012038e-09   -5390.7738 -6.9602779e-09    89424.698    3.1868027    44.718356 
    7890 8.8126211e-09   -5390.7738 -4.6402592e-09    89424.698    3.1868027    44.718356 
    7900 9.4699781e-09   -5390.7738 9.3018679e-09    89424.698    3.1868027    44.718356 
    7910 1.0176752e-08   -5390.7738 1.0250507e-09    89424.698    3.1868027    44.718356 
    7920 1.0936684e-08   -5390.7738 -9.4941444e-09    89424.698    3.1868027    44.718356 
    7930 1.1753802e-08   -5390.7738 3.350587e-09    89424.698    3.1868027    44.718356 
    7940 1.2632437e-08   -5390.7738 8.4363173e-09    89424.698    3.1868027    44.718356 
    7950 1.3577252e-08   -5390.7738 -6.6119875e-09    89424.698    3.1868027    44.718356 
    7960 1.4593265e-08   -5390.7738 -5.3811086e-09    89424.698    3.1868027    44.718356 
    7970 1.5685875e-08   -5390.7738 9.4052847e-09    89424.698    3.1868027    44.718356 
    7980 1.6860895e-08   -5390.7738 1.9916347e-09    89424.698    3.1868027    44.718356 
    7990 1.8124579e-08   -5390.7738 -9.862125e-09    89424.698    3.1868027    44.718356 
    8000 1.9483659e-08   -5390.7738 2.7243632e-09    89424.698    3.1868027    44.718356 
    8010 2.0945384e-08   -5390.7738 9.476933e-09    89424.698    3.1868027    44.718356 
    8020 2.2517553e-08   -5390.7738 -6.1445201e-09    89424.698    3.1868027    44.718356 
    8030 2.4208567e-08   -5390.7738 -6.3702791e-09    89424.698    3.1868027    44.718356 
    8040 2.6027466e-08   -5390.7738 9.5807033e-09    89424.698    3.1868027    44.718356 
    8050 2.7983984e-08   -5390.7738 3.1031283e-09    89424.698    3.1868027    44.718356 
    8060 3.0088605e-08   -5390.7738 -1.0270935e-08    89424.698    3.1868027    44.718356 
    8070 3.2352613e-08   -5390.7738 2.2276702e-09    89424.698    3.1868027    44.718356 
    8080 3.4788163e-08   -5390.7738 1.036926e-08    89424.698    3.1868027    44.718356 
    8090 3.7408341e-08   -5390.7738 -5.754444e-09    89424.698    3.1868027    44.718356 
    8100 4.0227241e-08   -5390.7738 -6.8693359e-09    89424.698    3.1868027    44.718356 
    8110 4.3260043e-08   -5390.7738 9.8627125e-09    89424.698    3.1868027    44.718356 
    8120 4.6523095e-08   -5390.7738 3.9766109e-09    89424.698    3.1868027    44.718356 
    8130 5.0034003e-08   -5390.7738 -1.0315845e-08    89424.698    3.1868027    44.718356 
    8140 5.3811731e-08   -5390.7738 1.7963096e-09    89424.698    3.1868027    44.718356 
    8150 5.7876708e-08   -5390.7738 1.123578e-08    89424.698    3.1868027    44.718356 
    8160 6.2250934e-08   -5390.7738 -4.9293032e-09    89424.698    3.1868027    44.718356 
    8170 6.695811e-08   -5390.7738 -7.4632231e-09    89424.698    3.1868027    44.718356 
    8180 7.2023765e-08   -5390.7738 1.0055774e-08    89424.698    3.1868027    44.718356 
    8190 7.7475401e-08   -5390.7738 5.4221115e-09    89424.698    3.1868027    44.718356 
    8200 8.3342643e-08   -5390.7738 -1.0256035e-08    89424.698    3.1868027    44.718356 
    8210 8.9657404e-08   -5390.7738 1.3271061e-09    89424.698    3.1868027    44.718356 
    8220 9.6454064e-08   -5390.7738 1.2452508e-08    89424.698    3.1868027    44.718356 
    8230 1.0376966e-07   -5390.7738 -3.7521298e-09    89424.698    3.1868027    44.718356 
    8240 1.116441e-07   -5390.7738 -7.993414e-09    89424.698    3.1868027    44.718356 
    8250 1.2012037e-07   -5390.7738 1.0489696e-08    89424.698    3.1868027    44.718356 
    8260 1.2924478e-07   -5390.7738 7.1611615e-09    89424.698    3.1868027    44.718356 
    8270 1.3906724e-07   -5390.7738 -9.944115e-09    89424.698    3.1868027    44.718356 
    8280 1.4964151e-07   -5390.7738 1.1198217e-09    89424.698    3.1868027    44.718356 
    8290 1.6102553e-07   -5390.7738 1.4037376e-08    89424.698    3.1868027    44.718356 
    8300 1.7328171e-07   -5390.7738 -2.5099736e-09    89424.698    3.1868027    44.718356 
    8310 1.8647731e-07   -5390.7738 -7.9946098e-09    89424.698    3.1868027    44.718356 
    8320 2.0068482e-07   -5390.7738 1.1392304e-08    89424.698    3.1868027    44.718356 
    8330 2.1598235e-07   -5390.7738 9.0955046e-09    89424.698    3.1868027    44.718356 
    8340 2.3245404e-07   -5390.7738 -9.0843369e-09    89424.698    3.1868027    44.718356 
    8350 2.5019063e-07   -5390.7738 1.5697612e-09    89424.698    3.1868027    44.718356 
    8360 2.6928985e-07   -5390.7738 1.5759184e-08    89424.698    3.1868027    44.718356 
    8370 2.8985708e-07   -5390.7738 -4.7694355e-10    89424.698    3.1868027    44.718356 
    8380 3.1200587e-07   -5390.7738 -7.1433119e-09    89424.698    3.1868027    44.718356 
    8390 3.3585862e-07   -5390.7738 1.2794027e-08    89424.698    3.1868027    44.718356 
    8400 3.6154725e-07   -5390.7738 1.1698905e-08    89424.698    3.1868027    44.718356 
    8410 3.8921398e-07   -5390.7738 -7.2549825e-09    89424.698    3.1868027    44.718356 
    8420 4.190121e-07   -5390.7738 2.740751e-09    89424.698    3.1868027    44.718356 
    8430 4.5110685e-07   -5390.7738 1.8621433e-08    89424.698    3.1868027    44.718356 
    8440 4.8567639e-07   -5390.7738 2.6392624e-09    89424.698    3.1868027    44.718356 
    8450 5.2291276e-07   -5390.7738 -5.5733095e-09    89424.698    3.1868027    44.718356 
    8460 5.6302302e-07   -5390.7738 1.514031e-08    89424.698    3.1868027    44.718356 
    8470 6.062304e-07   -5390.7738 1.5878329e-08    89424.698    3.1868027    44.718356 
    8480 6.5277557e-07   -5390.7738 -4.1818503e-09    89424.698    3.1868027    44.718356 
    8490 7.0291803e-07   -5390.7738 5.1134061e-09    89424.698    3.1868027    44.718356 
    8500 7.5693757e-07   -5390.7738 2.2921499e-08    89424.698    3.1868027    44.718356 
    8510 8.151359e-07   -5390.7738 7.5557925e-09    89424.698    3.1868027    44.718356 
    8520 8.7783833e-07   -5390.7738 -2.155065e-09    89424.698    3.1868027    44.718356 
    8530 9.4539565e-07   -5390.7738 1.9498345e-08    89424.698    3.1868027    44.718356 
    8540 1.0181862e-06   -5390.7738 2.2061441e-08    89424.698    3.1868027    44.718356 
    8550 1.0966178e-06   -5390.7738 1.1264645e-09    89424.698    3.1868027    44.718356 
    8560 1.1811304e-06   -5390.7738 9.783521e-09    89424.698    3.1868027    44.718356 
    8570 1.2721985e-06   -5390.7738 2.9953958e-08    89424.698    3.1868027    44.718356 
    8580 1.3703338e-06   -5390.7738 1.5290455e-08    89424.698    3.1868027    44.718356 
[...]
  219050    96.965397   -4055.0408    42.647857    106216.44    2.6830015    47.358425 
  219060    97.231739   -4054.2041    44.771128    106219.89    2.6829145    47.358937 
  219070    97.606931    -4053.695    45.560646    106228.67    2.6826926    47.360243 
  219080    98.090187   -4053.8553    44.589658    106242.82    2.6823354    47.362345 
  219090    98.666147   -4053.4952    43.344957    106262.17    2.6818468    47.365221 
  219100    99.297646   -4053.0458    41.204161    106286.48    2.6812335    47.368832 
  219110    99.935593   -4052.1018    38.570139    106315.41    2.6805038     47.37313 
  219120    100.53345   -4052.1591    33.454787    106348.57    2.6796682    47.378054 
  219130    101.06088   -4051.4411    28.103309     106385.3    2.6787429    47.383508 
  219140     101.5101   -4050.5247    21.868711    106424.91    2.6777459    47.389388 
  219150    101.88654   -4050.6941    13.287423    106466.59    2.6766976    47.395574 
  219160    102.20306   -4050.2284    4.7841539    106509.32    2.6756238    47.401914 
  219170    102.47069    -4050.855   -5.5375959       106552     2.674552    47.408244 
  219180    102.69579    -4052.029   -16.665019    106593.42    2.6735129    47.414386 
  219190     102.8791   -4053.0225   -27.332826    106632.25    2.6725392    47.420143 
  219200    103.01489   -4053.9721   -37.379357    106667.24    2.6716627    47.425328 
  219210     103.0945    -4055.184   -46.884201     106697.2    2.6709124    47.429769 
  219220    103.11023   -4056.5565   -55.439098    106721.08    2.6703146    47.433308 
  219230    103.05619    -4057.582   -62.161807    106737.94     2.669893    47.435804 
  219240    102.92816   -4057.3396   -65.727004    106747.06    2.6696649    47.437155 
  219250    102.73101   -4058.3178   -69.185609    106748.07    2.6696395    47.437306 
  219260    102.47435   -4058.8682   -70.424709    106740.71    2.6698236    47.436215 
  219270    102.17379   -4059.3782   -69.960709    106724.94    2.6702181    47.433879 
  219280     101.8495    -4060.277   -68.410436    106700.93    2.6708191    47.430321 
  219290    101.52218   -4061.1049   -65.300501    106668.98     2.671619    47.425587 
  219300    101.21084   -4062.6459   -61.739325    106629.57    2.6726063    47.419746 
  219310    100.92962   -4063.4261   -55.985708    106583.28    2.6737673    47.412882 
  219320    100.68706   -4064.5798   -49.607221    106530.88    2.6750822    47.405112 
  219330     100.4865   -4066.4631   -43.178784    106473.25    2.6765302    47.396562 
  219340    100.32591   -4067.9887   -35.444085    106411.25    2.6780897     47.38736 
  219350    100.19839   -4070.0671   -27.692362    106345.86    2.6797364    47.377651 
  219360    100.09794   -4071.4851   -18.532025    106278.11    2.6814446    47.367589 
  219370     100.0175   -4073.4115   -9.6163031    106209.15    2.6831856    47.357342 
  219380    99.950497   -4074.6631   0.36866136     106140.1    2.6849313    47.347076 
  219390    99.890916   -4076.4687    9.6541658    106072.13    2.6866518    47.336967 
  219400     99.83526   -4078.4503    18.510757    106006.35    2.6883189     47.32718 
  219410    99.779501   -4079.0468    28.705093    105943.84    2.6899051    47.317875 
  219420    99.719482   -4080.4534    37.216034    105885.72    2.6913816    47.309221 
  219430    99.654985    -4081.768    44.990311    105832.95    2.6927234    47.301361 
  219440    99.585126   -4082.2787    52.746786     105786.4    2.6939084    47.294425 
  219450    99.511248   -4082.6124     59.51482    105746.86    2.6949157    47.288532 
  219460    99.431607   -4083.3254    64.425501       105715    2.6957279    47.283782 
  219470    99.347087   -4083.1952    68.907646    105691.31    2.6963322    47.280249 
  219480    99.259483    -4083.238    71.554064    105676.17    2.6967184    47.277992 
  219490    99.172538    -4083.595    72.105313    105669.75    2.6968821    47.277035 
  219500     99.09356   -4083.3472    71.684981    105672.04    2.6968238    47.277376 
  219510    99.030264    -4083.025    69.591127    105682.84    2.6965483    47.278986 
  219520    98.992833   -4082.1171      66.4869    105701.78    2.6960651     47.28181 
  219530    98.990354     -4081.53    61.256101    105728.38    2.6953868    47.285776 
  219540    99.030149   -4081.3737    53.860465    105761.92    2.6945319    47.290777 
  219550    99.118736   -4081.2871    44.940963    105801.43    2.6935258    47.296664 
  219560    99.258064   -4080.8827    35.220143    105845.78     2.692397    47.303273 
  219570    99.446921    -4081.401    23.397592    105893.75    2.6911774    47.310417 
  219580    99.682145   -4081.7388    11.210844     105943.9    2.6899036    47.317884 
  219590    99.959023    -4081.988   -1.1003989    105994.74    2.6886134    47.325452 
  219600    100.27159   -4082.3591   -13.440755    106044.77    2.6873449    47.332897 
  219610    100.61261   -4082.4433   -24.937202    106092.56    2.6861344    47.340006 
  219620    100.97561   -4082.6771   -35.799843    106136.74    2.6850163    47.346576 
  219630    101.35151   -4082.7269   -45.288933    106176.04    2.6840224     47.35242 
  219640    101.72872   -4083.3855   -54.135141    106209.38    2.6831799    47.357376 
  219650    102.09516   -4083.4422   -60.566705    106235.81    2.6825124    47.361303 
  219660    102.43539   -4084.0124   -65.820691     106254.6     2.682038    47.364095 
  219670    102.73303   -4084.2273   -68.671112    106265.24    2.6817695    47.365676 
  219680    102.97353   -4084.2165    -69.22005     106267.5    2.6817125    47.366011 
  219690    103.14372   -4085.2728   -69.100231    106261.38    2.6818668    47.365103 
  219700    103.22993   -4085.5599   -66.031708    106247.06    2.6822283    47.362975 
  219710    103.22353   -4085.1533   -60.228212       106225    2.6827853    47.359697 
  219720    103.12089   -4085.0072   -53.094132    106195.99    2.6835182    47.355385 
  219730    102.92394   -4084.3535   -43.904491    106160.97    2.6844034    47.350179 
  219740    102.63887   -4083.3426   -33.159935    106121.11    2.6854116    47.344253 
  219750    102.27502   -4082.9891    -22.50852    106077.76    2.6865091    47.337805 
  219760    101.84783    -4082.187   -10.909351    106032.28    2.6876615    47.331038 
  219770    101.37275   -4081.5271   0.51889702    105986.06    2.6888335     47.32416 
  219780    100.87034   -4081.0421    11.398664    105940.46    2.6899909    47.317372 
  219790     100.3621   -4081.1643    20.877952    105896.77    2.6911008    47.310866 
  219800    99.869155   -4081.3281    29.424943    105856.13    2.6921338    47.304814 
  219810    99.410881   -4082.2067    35.990763    105819.51    2.6930656    47.299358 
  219820    99.002441    -4082.664    41.880857    105787.61    2.6938775    47.294605 
  219830    98.656995   -4083.1933    46.354666    105761.09    2.6945531    47.290653 
  219840    98.379947   -4083.8722    49.215542    105740.43    2.6950797    47.287572 
  219850     98.17613    -4084.601     50.54145    105725.88    2.6954504    47.285404 
  219860    98.045027   -4085.6101    50.017867    105717.53    2.6956635    47.284158 
  219870    97.984246   -4085.7818    49.078597    105715.26    2.6957212    47.283821 
  219880    97.991962   -4086.8832    45.523798    105718.85    2.6956297    47.284356 
  219890    98.064119    -4088.439    40.058241    105727.82     2.695401    47.285693 
  219900    98.195838    -4089.382    34.191881    105741.49    2.6950526    47.287731 
  219910    98.379017    -4090.642    26.912607    105759.11    2.6946035    47.290358 
  219920    98.606406   -4091.4853    19.369267     105779.8    2.6940764    47.293442 
  219930    98.869394   -4092.5474    10.990904    105802.62    2.6934954    47.296842 
  219940    99.156785   -4093.7858    2.0905344    105826.56    2.6928861    47.300409 
  219950    99.459746   -4095.0514   -6.8541744    105850.56    2.6922756    47.303984 
  219960    99.764528   -4096.4112   -15.639035    105873.53    2.6916915    47.307405 
  219970    100.05768   -4097.8115   -23.911702    105894.41    2.6911606    47.310516 
  219980    100.32608   -4097.8984   -29.700297     105912.3     2.690706     47.31318 
  219990    100.55886   -4098.0563   -34.566207     105926.5    2.6903453    47.315294 
  220000    100.75021   -4098.5915   -38.737618    105936.45    2.6900928    47.316775 
  220010    100.89375   -4098.8449   -41.271118    105941.67    2.6899602    47.317553 
  220020    100.99025   -4099.3027    -42.73322    105941.92    2.6899539    47.317589 
  220030    101.04203   -4098.5411   -41.325883    105937.09    2.6900764    47.316871 
  220040    101.05424   -4098.1963   -39.208723    105927.37    2.6903234    47.315423 
  220050    101.03299   -4097.3544   -35.345872    105913.05    2.6906871    47.313291 
  220060    100.98622   -4097.6913    -32.02371    105894.61    2.6911555    47.310546 
  220070    100.92008   -4097.3845   -27.081693    105872.52     2.691717    47.307256 
  220080    100.84015   -4097.0159    -21.42688    105847.38    2.6923563    47.303511 
  220090    100.74874   -4096.8046   -15.507847    105819.89    2.6930558    47.299415 
  220100    100.64484   -4096.7531   -9.4878005    105790.76    2.6937974    47.295074 
  220110    100.52645   -4096.4375   -2.9774211    105760.74    2.6945621      47.2906 
  220120    100.38985   -4095.2715    4.6095056    105730.61    2.6953298     47.28611 
  220130    100.23415   -4095.4324    10.329628    105701.26    2.6960783    47.281733 
  220140    100.06208   -4094.9127    16.584308    105673.41    2.6967889     47.27758 
  220150    99.878463   -4094.6839    21.978337    105647.73    2.6974443     47.27375 
  220160     99.69167   -4094.8749    26.194945    105624.86    2.6980285    47.270339 
  220170    99.509418   -4095.1638    29.510058    105605.29    2.6985285    47.267419 
  220180    99.340389   -4095.2328    32.225697     105589.4    2.6989345    47.265048 
  220190    99.191516   -4095.3687    33.906541    105577.47    2.6992394    47.263268 
  220200    99.068139   -4095.6293    34.449798    105569.66    2.6994391    47.262103 
  220210    98.973608   -4095.9141    33.994199    105566.02    2.6995322     47.26156 
  220220    98.907637   -4096.0314    32.833568    105566.48    2.6995206    47.261628 
  220230    98.867518    -4096.785    30.030257    105570.84    2.6994091    47.262278 
  220240    98.847793   -4096.6804    27.606304    105578.78    2.6992059    47.263464 
  220250    98.843467   -4096.6356    24.511546       105590    2.6989193    47.265137 
  220260    98.851416   -4096.2798    21.340924    105604.11    2.6985587    47.267243 
  220270    98.870423   -4097.0721    16.353773    105620.68    2.6981353    47.269715 
  220280    98.900874   -4097.3879    11.748475    105639.13     2.697664    47.272467 
  220290    98.945764   -4096.7237    8.2709431    105658.94    2.6971581    47.275423 
  220300    99.007322    -4097.005    3.5501989    105679.66    2.6966293    47.278513 
  220310    99.089129   -4097.4637   -1.3251309     105700.7    2.6960925     47.28165 
  220320    99.190691   -4097.0883   -4.9639834    105721.52    2.6955617    47.284753 
  220330     99.31162   -4096.6635   -8.2734471    105741.66    2.6950482    47.287757 
  220340    99.449516   -4096.5212   -11.590395    105760.77    2.6945613    47.290605 
  220350    99.603232    -4096.047   -14.037054    105778.46    2.6941107    47.293241 
  220360     99.76875   -4095.4205   -15.766449    105794.42    2.6937042     47.29562 
  220370    99.939997   -4094.9362   -17.105645    105808.44    2.6933473    47.297709 
  220380    100.11676   -4094.8038    -18.27383    105820.35    2.6930442    47.299483 
  220390    100.29312    -4094.169   -18.174365    105830.05    2.6927974    47.300928 
  220400    100.46755   -4094.0006   -18.051472    105837.54    2.6926067    47.302045 
  220410    100.63695   -4093.9074   -17.433995    105842.84    2.6924718    47.302835 
  220420    100.80083    -4093.909    -16.39353    105846.04    2.6923905    47.303311 
  220430    100.95756   -4093.7972   -14.739241    105847.28     2.692359    47.303495 
  220440    101.10852   -4093.2837   -12.193968    105846.78    2.6923716    47.303421 
  220450     101.2547    -4092.667   -9.2484354    105844.85    2.6924207    47.303134 
  220460    101.39803   -4092.0549   -6.1568876    105841.84    2.6924974    47.302684 
  220470    101.53941   -4092.1122   -3.8771426    105838.08    2.6925929    47.302125 
  220480    101.67643    -4092.084   -1.5408085    105833.89    2.6926997      47.3015 
  220490    101.80542   -4091.4045    1.5003998    105829.54    2.6928103    47.300852 
  220500    101.92225   -4091.1508    3.8230791    105825.38    2.6929162    47.300232 
  220510    102.01827   -4091.1705    5.5914379    105821.68    2.6930102    47.299682 
  220520    102.08233   -4091.3205    6.9780744    105818.69    2.6930864    47.299236 
  220530    102.10397     -4091.12    8.6046754    105816.57    2.6931403    47.298921 
  220540    102.07209   -4091.3619    9.4696903    105815.49    2.6931678    47.298759 
  220550     101.9766   -4092.0349    9.5887248    105815.55    2.6931662    47.298769 
  220560    101.80911   -4091.8116    10.645718     105816.8    2.6931344    47.298955 
  220570    101.56691   -4091.3368    11.785773    105819.35    2.6930697    47.299334 
  220580    101.25031   -4090.8745    12.605916    105823.33    2.6929683    47.299927 
  220590    100.86392   -4089.7694    13.860505    105828.88    2.6928271    47.300754 
  220600    100.41715   -4089.0457     14.16268    105836.11    2.6926432    47.301831 
  220610    99.925472   -4088.6098    13.573471    105845.03    2.6924162     47.30316 
  220620    99.407477   -4088.3324    12.230742    105855.58    2.6921479    47.304731 
  220630    98.887243   -4088.0422    10.373065     105867.6    2.6918423    47.306522 
  220640    98.386898   -4087.4415    8.4313624    105880.88    2.6915045    47.308501 
  220650    97.924659   -4087.0426    5.8332953    105895.19    2.6911408    47.310632 
  220660    97.516136   -4086.2737    3.4146219    105910.23    2.6907586    47.312872 
  220670    97.170002    -4086.066   0.10758962    105925.69    2.6903659    47.315174 
  220680    96.892274   -4085.3202   -2.5588638    105941.19    2.6899725     47.31748 
  220690    96.683726   -4085.7024    -6.582439    105956.33     2.689588    47.319735 
  220700     96.54445   -4085.0329   -9.0762856     105970.7    2.6892232    47.321875 
  220710    96.474979    -4085.466   -12.684751    105983.98    2.6888863    47.323851 
  220720    96.475272   -4085.3244   -15.179564    105995.75    2.6885876    47.325603 
  220730    96.545256    -4084.527   -16.383783    106005.73    2.6883346    47.327088 
  220740      96.6862   -4083.8834   -17.270098    106013.75    2.6881312    47.328281 
  220750    96.898491   -4083.7792   -18.275229    106019.69    2.6879807    47.329165 
  220760    97.181893   -4084.0581   -19.145759    106023.42    2.6878862     47.32972 
  220770    97.533425   -4084.6313   -19.725502    106024.84      2.68785    47.329932 
  220780     97.94797   -4085.1723   -19.575695    106023.92    2.6878735    47.329794 
  220790    98.413963   -4084.6386   -17.386174    106020.67    2.6879558    47.329311 
  220800    98.913784   -4084.7471   -15.398839    106015.31    2.6880918    47.328513 
  220810    99.421297   -4084.3564   -12.260442    106008.11    2.6882742    47.327442 
  220820    99.906471   -4084.0718   -8.8514774    105999.46    2.6884936    47.326155 
  220830    100.33749   -4083.8916   -5.2801915    105989.75      2.68874    47.324709 
  220840    100.68934   -4083.2263  -0.89672631    105979.41    2.6890022    47.323171 
  220850     100.9453   -4083.2727    2.6865254    105968.97    2.6892671    47.321617 
  220860     101.1013   -4083.6983    5.8338325    105958.88    2.6895232    47.320115 
  220870    101.15936   -4083.0557    10.330716    105949.54    2.6897603    47.318724 
  220880    101.12788   -4082.4416    14.705057    105941.45    2.6899659    47.317519 
  220890    101.02107   -4081.0121    19.925968    105935.13    2.6901262    47.316579 
  220900    100.85486   -4079.7306    24.622516    105931.22    2.6902256    47.315996 
  220910    100.64564   -4078.0722    29.287729    105930.28    2.6902494    47.315857 
  220920    100.41308   -4076.6712    32.930956    105932.86    2.6901838    47.316241 
  220930    100.17808   -4075.5146    35.381867    105939.42    2.6900173    47.317217 
  220940    99.961168   -4073.9809    37.264545    105950.28    2.6897415    47.318835 
  220950    99.778592   -4072.6567    37.698139    105965.67    2.6893509    47.321126 
  220960    99.643086   -4071.8191    36.261587    105985.64    2.6888443    47.324097 
  220970     99.55962   -4070.9176    33.658235    106010.03    2.6882257    47.327727 
  220980    99.526995    -4069.789    30.173307    106038.55    2.6875024    47.331972 
  220990    99.539436   -4069.6199    24.451774     106070.8    2.6866855    47.336769 
  221000    99.586159   -4069.9261    17.339696    106106.08    2.6857921    47.342017 
  221010    99.655121   -4069.9253    10.114157    106143.57    2.6848436    47.347591 
  221020    99.730072   -4069.1548    3.6431813    106182.39    2.6838619    47.353364 
  221030    99.796385   -4068.6609   -3.1374767    106221.76    2.6828672    47.359215 
  221040    99.843181   -4068.3079   -9.8046043    106260.86    2.6818799    47.365026 
  221050    99.862535    -4067.558   -15.450866    106298.92    2.6809198     47.37068 
  221060    99.850437   -4066.6555   -20.195334    106335.22    2.6800045    47.376072 
  221070    99.803659   -4065.2303   -23.432734    106369.17    2.6791491    47.381114 
  221080    99.725531   -4064.2748   -26.334679    106400.37    2.6783636    47.385745 
  221090    99.622143   -4063.2673   -28.202364    106428.48    2.6776562    47.389917 
  221100    99.503334    -4061.237   -27.821552    106453.29     2.677032      47.3936 
  221110    99.383203   -4058.6831   -25.899527    106474.82    2.6764907    47.396795 
  221120    99.280241   -4057.3524   -24.767016    106493.25    2.6760275     47.39953 
  221130    99.213725   -4055.6032   -22.481277    106508.75    2.6756381    47.401829 
  221140    99.202859   -4053.2891   -19.009642     106521.6    2.6753154    47.403735 
  221150    99.265648   -4052.0526   -16.588276    106532.17    2.6750499    47.405303 
  221160    99.416482   -4051.1875   -14.453797    106540.76    2.6748343    47.406577 
  221170    99.662665   -4050.2095   -12.100059    106547.63    2.6746618    47.407596 
  221180     100.0033   -4049.4487   -10.030024    106553.06    2.6745254    47.408401 
  221182    100.08223   -4049.0449   -9.3044604       106554    2.6745019     47.40854 
Loop time of 87.5544 on 1 procs for 100000 steps with 2048 atoms

Performance: 98.682 ns/day, 0.243 hours/ns, 1142.147 timesteps/s
93.4% CPU use with 1 MPI tasks x no OpenMP threads

MPI task timing breakdown:
Section |  min time  |  avg time  |  max time  |%varavg| %total
---------------------------------------------------------------
Pair    | 73.778     | 73.778     | 73.778     |   0.0 | 84.26
Neigh   | 2.1474     | 2.1474     | 2.1474     |   0.0 |  2.45
Comm    | 1.7408     | 1.7408     | 1.7408     |   0.0 |  1.99
Output  | 0.23831    | 0.23831    | 0.23831    |   0.0 |  0.27
Modify  | 8.6172     | 8.6172     | 8.6172     |   0.0 |  9.84
Other   |            | 1.033      |            |       |  1.18

Nlocal:    2048 ave 2048 max 2048 min
Histogram: 1 0 0 0 0 0 0 0 0 0
Nghost:    2596 ave 2596 max 2596 min
Histogram: 1 0 0 0 0 0 0 0 0 0
Neighs:    44018 ave 44018 max 44018 min
Histogram: 1 0 0 0 0 0 0 0 0 0

Total # of neighbors = 44018
Ave neighs/atom = 21.4932
Neighbor list builds = 927
Dangerous builds = 0
Total wall time: 0:03:18
