LAMMPS (7 Aug 2019)
Lattice spacing in x,y,z = 5 5 5
Created orthogonal box = (0 0 0) to (15 15 15)
  1 by 1 by 1 MPI processor grid
Created 108 atoms
  create_atoms CPU = 0.000626087 secs
WARNING: Using 'neigh_modify every 1 delay 0 check yes' setting during minimization (../min.cpp:168)
Neighbor list info ...
  update every 1 steps, delay 0 steps, check yes
  max neighbors/atom: 2000, page size: 100000
  master list distance cutoff = 8
  ghost atom cutoff = 8
  binsize = 4, bins = 4 4 4
  1 neighbor lists, perpetual/occasional/extra = 1 0 0
  (1) pair lj/cut, perpetual
      attributes: half, newton on
      pair build: half/bin/atomonly/newton
      stencil: half/bin/3d/newton
      bin: standard
Setting up cg style minimization ...
  Unit style    : real
  Current step  : 0
WARNING: Energy due to 1 extra global DOFs will be included in minimizer energies
Per MPI rank memory allocation (min/avg/max) = 5.477 | 5.477 | 5.477 Mbytes
Step Temp PotEng Press Volume Density Lx 
       0            0   -26.452801    42953.781         3375    4.4527949           15 
      10            0   -32.734597    42047.338    3385.1351    4.4394632       15.015 
      20            0   -38.895953    41157.658    3395.2905    4.4261846        15.03 
      30            0   -44.938814    40284.436    3405.4662     4.412959       15.045 
      40            0   -50.865096    39427.372    3415.6622     4.399786        15.06 
      50            0   -56.676682    38586.169    3425.8785    4.3866654       15.075 
      60            0   -62.375427    37760.541    3436.1152    4.3735969        15.09 
      70            0   -67.963156    36950.202    3446.3723    4.3605802       15.105 
      80            0   -73.441665    36154.874    3456.6497    4.3476152        15.12 
      90            0   -78.812719    35374.285    3466.9476    4.3347015       15.135 
     100            0   -84.078058    34608.166    3477.2659    4.3218389        15.15 
     110            0   -89.239393    33856.254    3487.6046    4.3090271       15.165 
     120            0   -94.298409     33118.29    3497.9638    4.2962659        15.18 
     130            0   -99.256761    32394.021    3508.3435    4.2835551       15.195 
     140            0   -104.11608    31683.198    3518.7438    4.2708943        15.21 
     150            0   -108.87797    30985.577    3529.1645    4.2582834       15.225 
     160            0   -113.54402    30300.919    3539.6058    4.2457221        15.24 
     170            0   -118.11577    29628.987    3550.0677    4.2332102       15.255 
     180            0   -122.59475    28969.551    3560.5502    4.2207474        15.27 
     190            0   -126.98248    28322.385    3571.0533    4.2083334       15.285 
     200            0   -131.28043    27687.265     3581.577    4.1959681         15.3 
     210            0   -135.49006    27063.974    3592.1214    4.1836512       15.315 
     220            0    -139.6128    26452.298    3602.6864    4.1713824        15.33 
     230            0   -143.65007    25852.025    3613.2722    4.1591616       15.345 
     240            0   -147.60326    25262.949    3623.8787    4.1469884        15.36 
     250            0   -151.47373    24684.867    3634.5059    4.1348627       15.375 
     260            0   -155.26284    24117.582    3645.1538    4.1227843        15.39 
     270            0   -158.97189    23560.896    3655.8226    4.1107528       15.405 
     280            0   -162.60221    23014.619    3666.5121    4.0987681        15.42 
     290            0   -166.15507    22478.562    3677.2224    4.0868299       15.435 
     300            0   -169.63174     21952.54    3687.9536    4.0749381        15.45 
     310            0   -173.03345    21436.373    3698.7057    4.0630924       15.465 
     320            0   -176.36144    20929.881    3709.4786    4.0512925        15.48 
     330            0    -179.6169    20432.891    3720.2724    4.0395383       15.495 
     340            0   -182.80102     19945.23    3731.0872    4.0278295        15.51 
     350            0   -185.91497     19466.73    3741.9228    4.0161659       15.525 
     360            0   -188.95989    18997.225    3752.7795    4.0045473        15.54 
     370            0   -191.93693    18536.554    3763.6571    3.9929734       15.555 
     380            0   -194.84717    18084.557    3774.5557    3.9814442        15.57 
     390            0   -197.69173    17641.077    3785.4753    3.9699592       15.585 
     400            0   -200.47168    17205.961     3796.416    3.9585184         15.6 
     410            0   -203.18808    16779.058    3807.3777    3.9471216       15.615 
     420            0   -205.84197    16360.219    3818.3605    3.9357684        15.63 
     430            0   -208.43439      15949.3    3829.3645    3.9244587       15.645 
     440            0   -210.96633    15546.158    3840.3895    3.9131923        15.66 
     450            0    -213.4388    15150.652    3851.4357     3.901969       15.675 
     460            0   -215.85278    14762.645     3862.503    3.8907886        15.69 
     470            0   -218.20923    14382.001    3873.5915    3.8796509       15.705 
     480            0    -220.5091    14008.589    3884.7012    3.8685556        15.72 
     490            0   -222.75333    13642.278    3895.8322    3.8575026       15.735 
     500            0   -224.94283    13282.939    3906.9844    3.8464916        15.75 
     510            0    -227.0785    12930.448    3918.1578    3.8355226       15.765 
     520            0   -229.16125    12584.681    3929.3526    3.8245952        15.78 
     530            0   -231.19195    12245.517    3940.5686    3.8137092       15.795 
     540            0   -233.17145    11912.837    3951.8059    3.8028646        15.81 
     550            0   -235.10061    11586.525    3963.0646     3.792061       15.825 
     560            0   -236.98027    11266.465    3974.3447    3.7812983        15.84 
     570            0   -238.81125    10952.546    3985.6462    3.7705763       15.855 
     580            0   -240.59435    10644.656     3996.969    3.7598948        15.87 
     590            0   -242.33039    10342.688    4008.3133    3.7492535       15.885 
     600            0   -244.02013    10046.534     4019.679    3.7386525         15.9 
     610            0   -245.66436    9756.0905    4031.0662    3.7280913       15.915 
     620            0   -247.26383    9471.2543    4042.4749    3.7175699        15.93 
     630            0    -248.8193    9191.9245     4053.905     3.707088       15.945 
     640            0    -250.3315    8918.0022    4065.3567    3.6966455        15.96 
     650            0   -251.80116    8649.3899      4076.83    3.6862422       15.975 
     660            0   -253.22899    8385.9921    4088.3248    3.6758779        15.99 
     670            0   -254.61569    8127.7151    4099.8412    3.6655524       16.005 
     680            0   -255.96195    7874.4666    4111.3792    3.6552655        16.02 
     690            0   -257.26847    7626.1562    4122.9388    3.6450171       16.035 
     700            0    -258.5359    7382.6951    4134.5201     3.634807        16.05 
     710            0   -259.76491     7143.996    4146.1231     3.624635       16.065 
     720            0   -260.95615    6909.9731    4157.7477    3.6145009        16.08 
     730            0   -262.11025    6680.5424    4169.3941    3.6044045       16.095 
     740            0   -263.22785    6455.6211    4181.0621    3.5943457        16.11 
     750            0   -264.30957    6235.1282     4192.752    3.5843243       16.125 
     760            0   -265.35601    6018.9839    4204.4635    3.5743401        16.14 
     770            0   -266.36778    5807.1099    4216.1969     3.564393       16.155 
     780            0   -267.34547    5599.4293    4227.9521    3.5544827        16.17 
     790            0   -268.28966    5395.8667    4239.7291    3.5446092       16.185 
     800            0   -269.20092    5196.3478     4251.528    3.5347722         16.2 
     810            0   -270.07982    5000.7998    4263.3487    3.5249715       16.215 
     820            0   -270.92691    4809.1513    4275.1914     3.515207        16.23 
     830            0   -271.74274    4621.3319    4287.0559    3.5054786       16.245 
     840            0   -272.52784    4437.2727    4298.9424     3.495786        16.26 
     850            0   -273.28276    4256.9058    4310.8508    3.4861292       16.275 
     860            0   -274.00799    4080.1648    4322.7812    3.4765079        16.29 
     870            0   -274.70407    3906.9842    4334.7336    3.4669219       16.305 
     880            0   -275.37149    3737.2998     4346.708    3.4573712        16.32 
     890            0   -276.01076    3571.0487    4358.7044    3.4478555       16.335 
     900            0   -276.62235    3408.1688    4370.7229    3.4383747        16.35 
     910            0   -277.20676    3248.5993    4382.7634    3.4289286       16.365 
     920            0   -277.76446    3092.2805    4394.8261    3.4195171        16.38 
     930            0   -278.29591    2939.1536    4406.9108      3.41014       16.395 
     940            0   -278.80157    2789.1611    4419.0177    3.4007971        16.41 
     950            0    -279.2819    2642.2463    4431.1468    3.3914884       16.425 
     960            0   -279.73735    2498.3536     4443.298    3.3822136        16.44 
     970            0   -280.16834    2357.4284    4455.4714    3.3729726       16.455 
     980            0   -280.57531     2219.417     4467.667    3.3637652        16.47 
     990            0   -280.95869    2084.2667    4479.8849    3.3545913       16.485 
    1000            0    -281.3189    1951.9257     4492.125    3.3454507         16.5 
    1010            0   -281.65634    1822.3433    4504.3874    3.3363433       16.515 
    1020            0   -281.97142    1695.4695    4516.6721     3.327269        16.53 
    1030            0   -282.26454    1571.2551    4528.9791    3.3182275       16.545 
    1040            0   -282.53609    1449.6521    4541.3084    3.3092187        16.56 
    1050            0   -282.78647     1330.613    4553.6601    3.3002425       16.575 
    1060            0   -283.01604    1214.0915    4566.0342    3.2912988        16.59 
    1070            0   -283.22518    1100.0417    4578.4306    3.2823873       16.605 
    1080            0   -283.41427    988.41895    4590.8495     3.273508        16.62 
    1090            0   -283.58367    879.17906    4603.2908    3.2646607       16.635 
    1100            0   -283.73372    772.27878    4615.7546    3.2558453        16.65 
    1110            0   -283.86479    667.67558    4628.2409    3.2470615       16.665 
    1120            0   -283.97722    565.32769    4640.7496    3.2383093        16.68 
    1130            0   -284.07135    465.19409    4653.2809    3.2295886       16.695 
    1140            0   -284.14752    367.23447    4665.8347    3.2208991        16.71 
    1150            0   -284.20605    271.40923    4678.4111    3.2122408       16.725 
    1160            0   -284.24728     177.6795      4691.01    3.2036134        16.74 
    1170            0   -284.27151    86.007055    4703.6316     3.195017       16.755 
    1180            0   -284.27909 -0.0020174359    4715.7559    3.1868025    16.769384 
    1182            0   -284.27909 -1.2705448e-11    4715.7556    3.1868027    16.769383 
Loop time of 0.104999 on 1 procs for 1182 steps with 108 atoms

98.8% CPU use with 1 MPI tasks x no OpenMP threads

Minimization stats:
  Stopping criterion = force tolerance
  Energy initial, next-to-last, final = 
        -26.4528009838     -284.279085153     -284.279085153
  Force two-norm initial, final = 6342.67 1.00056e-11
  Force max component initial, final = 6342.67 2.34484e-12
  Final line search alpha, max atom move = 1 2.34484e-12
  Iterations, force evaluations = 1182 1185

MPI task timing breakdown:
Section |  min time  |  avg time  |  max time  |%varavg| %total
---------------------------------------------------------------
Pair    | 0.079318   | 0.079318   | 0.079318   |   0.0 | 75.54
Neigh   | 0.00073314 | 0.00073314 | 0.00073314 |   0.0 |  0.70
Comm    | 0.0044746  | 0.0044746  | 0.0044746  |   0.0 |  4.26
Output  | 0.0006752  | 0.0006752  | 0.0006752  |   0.0 |  0.64
Modify  | 0          | 0          | 0          |   0.0 |  0.00
Other   |            | 0.0198     |            |       | 18.86

Nlocal:    108 ave 108 max 108 min
Histogram: 1 0 0 0 0 0 0 0 0 0
Nghost:    558 ave 558 max 558 min
Histogram: 1 0 0 0 0 0 0 0 0 0
Neighs:    2916 ave 2916 max 2916 min
Histogram: 1 0 0 0 0 0 0 0 0 0

Total # of neighbors = 2916
Ave neighs/atom = 27
Neighbor list builds = 6
Dangerous builds = 0
Setting up Verlet run ...
  Unit style    : real
  Current step  : 1182
  Time step     : 1
Per MPI rank memory allocation (min/avg/max) = 4.353 | 4.353 | 4.353 Mbytes
Step Temp PotEng Press Volume Density Lx 
    1182            0   -284.27909 -1.2705448e-11    4715.7556    3.1868027    16.769383 
    1190 4.7599322e-26   -284.27909 -1.2705448e-11    4715.7556    3.1868027    16.769383 
    1200 2.4517267e-25   -284.27909 -1.2705448e-11    4715.7556    3.1868027    16.769383 
    1210 6.1005092e-25   -284.27909 -8.6640588e-12    4715.7556    3.1868027    16.769383 
    1220 1.1555493e-24   -284.27909 3.3694788e-11    4715.7556    3.1868027    16.769383 
    1230 1.8892318e-24   -284.27909 2.8769841e-11    4715.7556    3.1868027    16.769383 
    1240 2.8098441e-24   -284.27909 3.625506e-11    4715.7556    3.1868027    16.769383 
    1250 3.9237825e-24   -284.27909 -5.0592696e-11    4715.7556    3.1868027    16.769383 
    1260 5.2373825e-24   -284.27909 -5.0690091e-11    4715.7556    3.1868027    16.769383 
    1270 6.7593102e-24   -284.27909 7.801164e-11    4715.7556    3.1868027    16.769383 
    1280 8.4985663e-24   -284.27909 6.7631316e-11    4715.7556    3.1868027    16.769383 
    1290 1.0469688e-23   -284.27909 -9.8926723e-11    4715.7556    3.1868027    16.769383 
    1300 1.2660482e-23   -284.27909 3.3144851e-11    4715.7556    3.1868027    16.769383 
    1310 1.5046235e-23   -284.27909 1.1755771e-10    4715.7556    3.1868027    16.769383 
    1320 1.7619379e-23   -284.27909 -1.3662402e-10    4715.7556    3.1868027    16.769383 
    1330 2.0354954e-23   -284.27909 1.155841e-10    4715.7556    3.1868027    16.769383 
    1340 2.3271699e-23   -284.27909 7.3496321e-11    4715.7556    3.1868027    16.769383 
    1350 2.6344396e-23   -284.27909 -9.6724285e-11    4715.7556    3.1868027    16.769383 
    1360 2.960689e-23   -284.27909 7.1469707e-11    4715.7556    3.1868027    16.769383 
    1370 3.3028946e-23   -284.27909 7.5747322e-11    4715.7556    3.1868027    16.769383 
    1380 3.6620475e-23   -284.27909 -9.2505055e-11    4715.7556    3.1868027    16.769383 
    1390 4.0385747e-23   -284.27909 -5.140092e-11    4715.7556    3.1868027    16.769383 
    1400 4.4386411e-23   -284.27909 1.1484018e-10    4715.7556    3.1868027    16.769383 
    1410 4.8661896e-23   -284.27909 -1.3690572e-10    4715.7556    3.1868027    16.769383 
    1420 5.3134276e-23   -284.27909 2.9996033e-11    4715.7556    3.1868027    16.769383 
    1430 5.7820602e-23   -284.27909 1.1222152e-10    4715.7556    3.1868027    16.769383 
    1440 6.2738182e-23   -284.27909 -1.0139444e-10    4715.7556    3.1868027    16.769383 
    1450 6.7647654e-23   -284.27909 2.8416848e-11    4715.7556    3.1868027    16.769383 
    1460 7.2461295e-23   -284.27909 7.3885097e-11    4715.7556    3.1868027    16.769383 
    1470 7.7098283e-23   -284.27909 -4.8294208e-11    4715.7556    3.1868027    16.769383 
    1480 8.1670299e-23   -284.27909 -5.0712692e-11    4715.7556    3.1868027    16.769383 
    1490 8.6340731e-23   -284.27909 2.8563077e-11    4715.7556    3.1868027    16.769383 
    1500 9.0631708e-23   -284.27909 3.1721715e-11    4715.7556    3.1868027    16.769383 
    1510 9.474006e-23   -284.27909 3.5974846e-11    4715.7556    3.1868027    16.769383 
    1520 9.8443013e-23   -284.27909 3.1384596e-11    4715.7556    3.1868027    16.769383 
    1530 1.0161835e-22   -284.27909 -1.2158067e-11    4715.7556    3.1868027    16.769383 
    1540 1.0376645e-22   -284.27909 -7.6649444e-12    4715.7556    3.1868027    16.769383 
    1550 1.0513407e-22   -284.27909 -1.110447e-11    4715.7556    3.1868027    16.769383 
    1560 1.060784e-22   -284.27909 -1.3081982e-11    4715.7556    3.1868027    16.769383 
    1570 1.0663016e-22   -284.27909 -1.3180454e-11    4715.7556    3.1868027    16.769383 
    1580 1.0673755e-22   -284.27909 -1.2111252e-11    4715.7556    3.1868027    16.769383 
    1590 1.0645263e-22   -284.27909 -7.7775415e-12    4715.7556    3.1868027    16.769383 
    1600 1.0573006e-22   -284.27909 -9.1027436e-12    4715.7556    3.1868027    16.769383 
    1610 1.0464745e-22   -284.27909 -7.7483497e-12    4715.7556    3.1868027    16.769383 
    1620 1.0318303e-22   -284.27909 -9.8165313e-12    4715.7556    3.1868027    16.769383 
    1630 1.0141286e-22   -284.27909 3.5682927e-11    4715.7556    3.1868027    16.769383 
    1640 9.8987556e-23   -284.27909 3.2521733e-11    4715.7556    3.1868027    16.769383 
    1650 9.5875334e-23   -284.27909 3.4099841e-11    4715.7556    3.1868027    16.769383 
    1660 9.1988543e-23   -284.27909 3.5982917e-11    4715.7556    3.1868027    16.769383 
    1670 8.7585228e-23   -284.27909 -5.5330519e-11    4715.7556    3.1868027    16.769383 
    1680 8.3397644e-23   -284.27909 -5.2994633e-11    4715.7556    3.1868027    16.769383 
    1690 7.9489161e-23   -284.27909 3.4517809e-11    4715.7556    3.1868027    16.769383 
    1700 7.5874292e-23   -284.27909 3.4000159e-11    4715.7556    3.1868027    16.769383 
    1710 7.2912008e-23   -284.27909 3.0658029e-11    4715.7556    3.1868027    16.769383 
    1720 7.0864821e-23   -284.27909 -5.5159672e-11    4715.7556    3.1868027    16.769383 
    1730 6.9863938e-23   -284.27909 -5.4251631e-11    4715.7556    3.1868027    16.769383 
    1740 7.0039066e-23   -284.27909 7.3498339e-11    4715.7556    3.1868027    16.769383 
    1750 7.1603733e-23   -284.27909 7.3332335e-11    4715.7556    3.1868027    16.769383 
    1760 7.4720642e-23   -284.27909 -9.2752311e-11    4715.7556    3.1868027    16.769383 
    1770 7.9432728e-23   -284.27909 -5.342417e-11    4715.7556    3.1868027    16.769383 
    1780 8.5874064e-23   -284.27909 1.149252e-10    4715.7556    3.1868027    16.769383 
    1790 9.4225145e-23   -284.27909 -1.3685581e-10    4715.7556    3.1868027    16.769383 
    1800 1.044966e-22   -284.27909 2.9214445e-11    4715.7556    3.1868027    16.769383 
    1810 1.1668611e-22   -284.27909 1.1513667e-10    4715.7556    3.1868027    16.769383 
    1820 1.3072103e-22   -284.27909 -9.4763185e-11    4715.7556    3.1868027    16.769383 
    1830 1.4648341e-22   -284.27909 3.145845e-11    4715.7556    3.1868027    16.769383 
    1840 1.6399447e-22   -284.27909 7.1970946e-11    4715.7556    3.1868027    16.769383 
    1850 1.8363365e-22   -284.27909 -5.1340383e-11    4715.7556    3.1868027    16.769383 
    1860 2.0588397e-22   -284.27909 -5.1611047e-11    4715.7556    3.1868027    16.769383 
    1870 2.3120617e-22   -284.27909 3.154199e-11    4715.7556    3.1868027    16.769383 
    1880 2.5851226e-22   -284.27909 3.0620496e-11    4715.7556    3.1868027    16.769383 
    1890 2.8694266e-22   -284.27909 3.2556306e-11    4715.7556    3.1868027    16.769383 
    1900 3.1592151e-22   -284.27909 2.9893391e-11    4715.7556    3.1868027    16.769383 
    1910 3.4479116e-22   -284.27909 -5.4285666e-11    4715.7556    3.1868027    16.769383 
    1920 3.7407854e-22   -284.27909 -5.2847194e-11    4715.7556    3.1868027    16.769383 
    1930 4.0376698e-22   -284.27909 7.3252697e-11    4715.7556    3.1868027    16.769383 
    1940 4.3047244e-22   -284.27909 7.4663053e-11    4715.7556    3.1868027    16.769383 
    1950 4.5454989e-22   -284.27909 -5.2439315e-11    4715.7556    3.1868027    16.769383 
    1960 4.7479758e-22   -284.27909 -5.3066469e-11    4715.7556    3.1868027    16.769383 
    1970 4.927877e-22   -284.27909 7.4164774e-11    4715.7556    3.1868027    16.769383 
    1980 5.0622051e-22   -284.27909 7.3617259e-11    4715.7556    3.1868027    16.769383 
    1990 5.1533136e-22   -284.27909 -9.5438364e-11    4715.7556    3.1868027    16.769383 
    2000 5.1945318e-22   -284.27909 -9.3350677e-12    4715.7556    3.1868027    16.769383 
    2010 5.1791617e-22   -284.27909 1.1561787e-10    4715.7556    3.1868027    16.769383 
    2020 5.1016571e-22   -284.27909 -1.355228e-10    4715.7556    3.1868027    16.769383 
    2030 4.962217e-22   -284.27909 7.378111e-11    4715.7556    3.1868027    16.769383 
    2040 4.765103e-22   -284.27909 1.161974e-10    4715.7556    3.1868027    16.769383 
    2050 4.5169067e-22   -284.27909 -9.5820414e-11    4715.7556    3.1868027    16.769383 
    2060 4.225051e-22   -284.27909 3.1783462e-11    4715.7556    3.1868027    16.769383 
    2070 3.900617e-22   -284.27909 1.1666649e-10    4715.7556    3.1868027    16.769383 
    2080 3.5591756e-22   -284.27909 -1.3684464e-10    4715.7556    3.1868027    16.769383 
    2090 3.2159684e-22   -284.27909 1.1611749e-10    4715.7556    3.1868027    16.769383 
    2100 2.8914173e-22   -284.27909 7.2045338e-11    4715.7556    3.1868027    16.769383 
    2110 2.6012117e-22   -284.27909 -9.4088275e-11    4715.7556    3.1868027    16.769383 
    2120 2.3706947e-22   -284.27909 7.3640128e-11    4715.7556    3.1868027    16.769383 
    2130 2.2260018e-22   -284.27909 7.3897204e-11    4715.7556    3.1868027    16.769383 
    2140 2.1874174e-22   -284.27909 -5.2105963e-11    4715.7556    3.1868027    16.769383 
    2150 2.2720746e-22   -284.27909 -5.2462992e-11    4715.7556    3.1868027    16.769383 
    2160 2.4924365e-22   -284.27909 7.302266e-11    4715.7556    3.1868027    16.769383 
    2170 2.863549e-22   -284.27909 7.5059497e-11    4715.7556    3.1868027    16.769383 
    2180 3.4001016e-22   -284.27909 -9.4696865e-11    4715.7556    3.1868027    16.769383 
    2190 4.1157377e-22   -284.27909 -5.2684688e-11    4715.7556    3.1868027    16.769383 
    2200 5.0165485e-22   -284.27909 1.1626627e-10    4715.7556    3.1868027    16.769383 
    2210 6.1045323e-22   -284.27909 -1.3727499e-10    4715.7556    3.1868027    16.769383 
    2220 7.3756893e-22   -284.27909 3.098452e-11    4715.7556    3.1868027    16.769383 
    2230 8.8251713e-22   -284.27909  1.16589e-10    4715.7556    3.1868027    16.769383 
    2240 1.044892e-21   -284.27909 -9.3770394e-11    4715.7556    3.1868027    16.769383 
    2250 1.2240052e-21   -284.27909 -1.022024e-11    4715.7556    3.1868027    16.769383 
    2260 1.4180761e-21   -284.27909 1.1588275e-10    4715.7556    3.1868027    16.769383 
    2270 1.6246634e-21   -284.27909 -1.3789676e-10    4715.7556    3.1868027    16.769383 
    2280 1.8401526e-21   -284.27909 7.3900702e-11    4715.7556    3.1868027    16.769383 
    2290 2.0614519e-21   -284.27909 1.158358e-10    4715.7556    3.1868027    16.769383 
    2300 2.2848506e-21   -284.27909 -9.3929671e-11    4715.7556    3.1868027    16.769383 
    2310 2.5064957e-21   -284.27909 7.3549189e-11    4715.7556    3.1868027    16.769383 
    2320 2.7224475e-21   -284.27909 7.3736044e-11    4715.7556    3.1868027    16.769383 
    2330 2.9284861e-21   -284.27909 -5.3150143e-11    4715.7556    3.1868027    16.769383 
    2340 3.1201491e-21   -284.27909 -5.2262953e-11    4715.7556    3.1868027    16.769383 
    2350 3.2966553e-21   -284.27909 3.1537013e-11    4715.7556    3.1868027    16.769383 
    2360 3.4542464e-21   -284.27909 3.1616248e-11    4715.7556    3.1868027    16.769383 
    2370 3.5893266e-21   -284.27909 3.2096232e-11    4715.7556    3.1868027    16.769383 
    2380 3.7013335e-21   -284.27909 3.1320832e-11    4715.7556    3.1868027    16.769383 
    2390 3.7907893e-21   -284.27909 -5.2343668e-11    4715.7556    3.1868027    16.769383 
    2400 3.8609344e-21   -284.27909 -5.2972974e-11    4715.7556    3.1868027    16.769383 
    2410 3.912393e-21   -284.27909 7.4087691e-11    4715.7556    3.1868027    16.769383 
    2420 3.9473827e-21   -284.27909 7.3445336e-11    4715.7556    3.1868027    16.769383 
    2430 3.9704342e-21   -284.27909 -9.4869998e-11    4715.7556    3.1868027    16.769383 
    2440 3.9826614e-21   -284.27909 7.3002481e-11    4715.7556    3.1868027    16.769383 
    2450 3.9896948e-21   -284.27909 1.1621596e-10    4715.7556    3.1868027    16.769383 
    2460 3.9986999e-21   -284.27909 -1.3625596e-10    4715.7556    3.1868027    16.769383 
    2470 4.0179584e-21   -284.27909 1.1533805e-10    4715.7556    3.1868027    16.769383 
    2480 4.0567797e-21   -284.27909 7.3235747e-11    4715.7556    3.1868027    16.769383 
    2490 4.1245228e-21   -284.27909 -1.7816523e-10    4715.7556    3.1868027    16.769383 
    2500 4.2314664e-21   -284.27909 1.5763529e-10    4715.7556    3.1868027    16.769383 
    2510 4.3874917e-21   -284.27909 3.1873862e-11    4715.7556    3.1868027    16.769383 
    2520 4.6022791e-21   -284.27909 -2.2115728e-10    4715.7556    3.1868027    16.769383 
    2530 4.8851164e-21   -284.27909 1.9995216e-10    4715.7556    3.1868027    16.769383 
    2540 5.2440599e-21   -284.27909 -1.0763988e-11    4715.7556    3.1868027    16.769383 
    2550 5.6861941e-21   -284.27909 -1.788696e-10    4715.7556    3.1868027    16.769383 
    2560 6.2163897e-21   -284.27909 1.5733099e-10    4715.7556    3.1868027    16.769383 
    2570 6.8391932e-21   -284.27909 -5.2277617e-11    4715.7556    3.1868027    16.769383 
    2580 7.5548945e-21   -284.27909 -9.3754116e-11    4715.7556    3.1868027    16.769383 
    2590 8.3620847e-21   -284.27909 1.5793353e-10    4715.7556    3.1868027    16.769383 
    2600 9.2571914e-21   -284.27909 -1.3614821e-10    4715.7556    3.1868027    16.769383 
    2610 1.0233583e-20   -284.27909 -5.2695719e-11    4715.7556    3.1868027    16.769383 
    2620 1.1282733e-20   -284.27909 1.9951146e-10    4715.7556    3.1868027    16.769383 
    2630 1.239357e-20   -284.27909 -1.7858158e-10    4715.7556    3.1868027    16.769383 
    2640 1.3551983e-20   -284.27909 -1.0134951e-11    4715.7556    3.1868027    16.769383 
    2650 1.4743079e-20   -284.27909 1.9965123e-10    4715.7556    3.1868027    16.769383 
    2660 1.595164e-20   -284.27909 -1.7765713e-10    4715.7556    3.1868027    16.769383 
    2670 1.7158395e-20   -284.27909 -5.2658994e-11    4715.7556    3.1868027    16.769383 
    2680 1.8347044e-20   -284.27909 2.4173282e-10    4715.7556    3.1868027    16.769383 
    2690 1.949838e-20   -284.27909 -1.3672357e-10    4715.7556    3.1868027    16.769383 
    2700 2.0597207e-20   -284.27909 -1.3618857e-10    4715.7556    3.1868027    16.769383 
    2710 2.1630087e-20   -284.27909 2.8346721e-10    4715.7556    3.1868027    16.769383 
    2720 2.2587047e-20   -284.27909 3.2616707e-11    4715.7556    3.1868027    16.769383 
    2730 2.3459054e-20   -284.27909 -3.0503312e-10    4715.7556    3.1868027    16.769383 
    2740 2.4243873e-20   -284.27909 7.3630442e-11    4715.7556    3.1868027    16.769383 
    2750 2.4940085e-20   -284.27909 2.4228411e-10    4715.7556    3.1868027    16.769383 
    2760 2.5554027e-20   -284.27909 -1.7789968e-10    4715.7556    3.1868027    16.769383 
    2770 2.6096445e-20   -284.27909 -1.3677846e-10    4715.7556    3.1868027    16.769383 
    2780 2.6584087e-20   -284.27909 2.8400853e-10    4715.7556    3.1868027    16.769383 
    2790 2.7039082e-20   -284.27909 3.2036637e-11    4715.7556    3.1868027    16.769383 
    2800 2.7486719e-20   -284.27909 -3.0469587e-10    4715.7556    3.1868027    16.769383 
    2810 2.7960972e-20   -284.27909 7.3929759e-11    4715.7556    3.1868027    16.769383 
    2820 2.8497943e-20   -284.27909 2.8346573e-10    4715.7556    3.1868027    16.769383 
    2830 2.9135435e-20   -284.27909 -1.3631515e-10    4715.7556    3.1868027    16.769383 
    2840 2.9912726e-20   -284.27909 -2.6295355e-10    4715.7556    3.1868027    16.769383 
    2850 3.0872193e-20   -284.27909 2.4204183e-10    4715.7556    3.1868027    16.769383 
    2860 3.2054163e-20   -284.27909 1.9982733e-10    4715.7556    3.1868027    16.769383 
    2870 3.3496447e-20   -284.27909 -3.8932639e-10    4715.7556    3.1868027    16.769383 
    2880 3.523426e-20   -284.27909 7.4334679e-11    4715.7556    3.1868027    16.769383 
    2890 3.7294426e-20   -284.27909 3.6745457e-10    4715.7556    3.1868027    16.769383 
    2900 3.9697909e-20   -284.27909 -3.0504415e-10    4715.7556    3.1868027    16.769383 
    2910  4.24554e-20   -284.27909 -2.2065846e-10    4715.7556    3.1868027    16.769383 
    2920 4.5568074e-20   -284.27909 4.5192218e-10    4715.7556    3.1868027    16.769383 
    2930 4.9026781e-20   -284.27909 -5.2553123e-11    4715.7556    3.1868027    16.769383 
    2940 5.2811065e-20   -284.27909 -4.3068841e-10    4715.7556    3.1868027    16.769383 
    2950 5.6890053e-20   -284.27909 3.255457e-10    4715.7556    3.1868027    16.769383 
    2960 6.1221959e-20   -284.27909 2.8412961e-10    4715.7556    3.1868027    16.769383 
    2970 6.5756791e-20   -284.27909 -4.7295941e-10    4715.7556    3.1868027    16.769383 
    2980 7.0436268e-20   -284.27909 -5.3949085e-11    4715.7556    3.1868027    16.769383 
    2990 7.5196201e-20   -284.27909 4.9363046e-10    4715.7556    3.1868027    16.769383 
    3000 7.997246e-20   -284.27909 -1.7908578e-10    4715.7556    3.1868027    16.769383 
    3010 8.4702729e-20   -284.27909 -3.8884452e-10    4715.7556    3.1868027    16.769383 
    3020 8.9330623e-20   -284.27909 3.6803114e-10    4715.7556    3.1868027    16.769383 
    3030 9.3810372e-20   -284.27909 2.0024758e-10    4715.7556    3.1868027    16.769383 
    3040 9.8111286e-20   -284.27909 -5.1449712e-10    4715.7556    3.1868027    16.769383 
    3050 1.0222036e-19   -284.27909 3.1339665e-11    4715.7556    3.1868027    16.769383 
    3060 1.0615184e-19   -284.27909 4.9348262e-10    4715.7556    3.1868027    16.769383 
    3070 1.0995279e-19   -284.27909 -2.208394e-10    4715.7556    3.1868027    16.769383 
    3080 1.1369782e-19   -284.27909 -3.8855785e-10    4715.7556    3.1868027    16.769383 
    3090 1.1749956e-19   -284.27909 4.101204e-10    4715.7556    3.1868027    16.769383 
    3100 1.2151405e-19   -284.27909 1.5796353e-10    4715.7556    3.1868027    16.769383 
    3110 1.2593276e-19   -284.27909 -5.1488024e-10    4715.7556    3.1868027    16.769383 
    3120 1.3098569e-19   -284.27909 3.0715471e-11    4715.7556    3.1868027    16.769383 
    3130 1.3694436e-19   -284.27909 5.3633746e-10    4715.7556    3.1868027    16.769383 
    3140 1.4411235e-19   -284.27909 -2.2021184e-10    4715.7556    3.1868027    16.769383 
    3150 1.5282388e-19   -284.27909 -4.3071302e-10    4715.7556    3.1868027    16.769383 
    3160 1.6342897e-19   -284.27909 4.1023326e-10    4715.7556    3.1868027    16.769383 
    3170 1.7629026e-19   -284.27909 2.4133423e-10    4715.7556    3.1868027    16.769383 
    3180 1.917699e-19   -284.27909 -5.1499553e-10    4715.7556    3.1868027    16.769383 
    3190 2.1021834e-19   -284.27909 -5.2758541e-11    4715.7556    3.1868027    16.769383 
    3200 2.3195951e-19   -284.27909 5.7814906e-10    4715.7556    3.1868027    16.769383 
    3210 2.572727e-19   -284.27909 -1.3625462e-10    4715.7556    3.1868027    16.769383 
    3220 2.8638256e-19   -284.27909 -5.566414e-10    4715.7556    3.1868027    16.769383 
    3230 3.1943752e-19   -284.27909 3.6851341e-10    4715.7556    3.1868027    16.769383 
    3240 3.5649992e-19   -284.27909 3.6740748e-10    4715.7556    3.1868027    16.769383 
    3250 3.9753144e-19   -284.27909 -5.1450478e-10    4715.7556    3.1868027    16.769383 
    3260 4.4238068e-19   -284.27909 -1.7801362e-10    4715.7556    3.1868027    16.769383 
    3270 4.9077832e-19   -284.27909 6.2050535e-10    4715.7556    3.1868027    16.769383 
    3280 5.4233276e-19   -284.27909 -9.3958054e-11    4715.7556    3.1868027    16.769383 
    3290 5.9652548e-19   -284.27909 -5.9896378e-10    4715.7556    3.1868027    16.769383 
    3300 6.5272024e-19   -284.27909 4.0970916e-10    4715.7556    3.1868027    16.769383 
    3310 7.101751e-19   -284.27909 4.1087831e-10    4715.7556    3.1868027    16.769383 
    3320 7.6805869e-19   -284.27909 -5.9864173e-10    4715.7556    3.1868027    16.769383 
    3330 8.2547633e-19   -284.27909 -9.4580767e-11    4715.7556    3.1868027    16.769383 
    3340 8.8149443e-19   -284.27909 6.6255506e-10    4715.7556    3.1868027    16.769383 
    3350 9.3518042e-19   -284.27909 -2.2100675e-10    4715.7556    3.1868027    16.769383 
    3360 9.856469e-19   -284.27909 -5.9868895e-10    4715.7556    3.1868027    16.769383 
    3370 1.0320944e-18   -284.27909 5.3603451e-10    4715.7556    3.1868027    16.769383 
    3380 1.0738632e-18   -284.27909 3.2585928e-10    4715.7556    3.1868027    16.769383 
    3390 1.1104905e-18   -284.27909 -6.8333911e-10    4715.7556    3.1868027    16.769383 
    3400 1.1417636e-18   -284.27909 -1.013562e-11    4715.7556    3.1868027    16.769383 
    3410 1.1677699e-18   -284.27909 7.0438899e-10    4715.7556    3.1868027    16.769383 
    3420 1.1889534e-18   -284.27909 -3.468279e-10    4715.7556    3.1868027    16.769383 
    3430 1.2061568e-18   -284.27909 -5.148867e-10    4715.7556    3.1868027    16.769383 
    3440 1.2206635e-18   -284.27909 5.7830646e-10    4715.7556    3.1868027    16.769383 
    3450 1.2342202e-18   -284.27909 2.4140808e-10    4715.7556    3.1868027    16.769383 
    3460 1.2490545e-18   -284.27909 -7.2552079e-10    4715.7556    3.1868027    16.769383 
    3470 1.2678694e-18   -284.27909 1.153351e-10    4715.7556    3.1868027    16.769383 
    3480 1.2938315e-18   -284.27909 6.6196477e-10    4715.7556    3.1868027    16.769383 
    3490 1.3305218e-18   -284.27909 -4.3078822e-10    4715.7556    3.1868027    16.769383 
    3500 1.3818882e-18   -284.27909 -5.1483759e-10    4715.7556    3.1868027    16.769383 
    3510 1.4521552e-18   -284.27909 6.6218458e-10    4715.7556    3.1868027    16.769383 
    3520 1.5457155e-18   -284.27909 2.4152405e-10    4715.7556    3.1868027    16.769383 
    3530 1.6670205e-18   -284.27909 -7.668185e-10    4715.7556    3.1868027    16.769383 
    3540 1.8204303e-18   -284.27909 7.3730803e-11    4715.7556    3.1868027    16.769383 
    3550 2.010033e-18   -284.27909 6.6197352e-10    4715.7556    3.1868027    16.769383 
    3560 2.2394927e-18   -284.27909 -3.881618e-10    4715.7556    3.1868027    16.769383 
    3570 2.5118419e-18   -284.27909 -4.7243368e-10    4715.7556    3.1868027    16.769383 
    3580 2.8292983e-18   -284.27909 6.206902e-10    4715.7556    3.1868027    16.769383 
    3590 3.193093e-18   -284.27909 1.988675e-10    4715.7556    3.1868027    16.769383 
    3600 3.6032556e-18   -284.27909 -7.2482098e-10    4715.7556    3.1868027    16.769383 
    3610 4.0584725e-18   -284.27909 1.1562191e-10    4715.7556    3.1868027    16.769383 
    3620 4.5559545e-18   -284.27909 6.6175129e-10    4715.7556    3.1868027    16.769383 
    3630 5.091304e-18   -284.27909 -4.3081888e-10    4715.7556    3.1868027    16.769383 
    3640 5.6584842e-18   -284.27909 -4.3066229e-10    4715.7556    3.1868027    16.769383 
    3650 6.2497964e-18   -284.27909 6.2021305e-10    4715.7556    3.1868027    16.769383 
    3660 6.8559448e-18   -284.27909 1.1569833e-10    4715.7556    3.1868027    16.769383 
    3670 7.4661228e-18   -284.27909 -7.2478021e-10    4715.7556    3.1868027    16.769383 
    3680 8.0681826e-18   -284.27909 2.4176836e-10    4715.7556    3.1868027    16.769383 
    3690 8.6489659e-18   -284.27909 6.1992329e-10    4715.7556    3.1868027    16.769383 
    3700 9.1945607e-18   -284.27909 -5.1439552e-10    4715.7556    3.1868027    16.769383 
    3710 9.6907704e-18   -284.27909 -3.8834056e-10    4715.7556    3.1868027    16.769383 
    3720 1.0123565e-17   -284.27909 7.0370685e-10    4715.7556    3.1868027    16.769383 
    3730 1.0479593e-17   -284.27909 1.1506527e-10    4715.7556    3.1868027    16.769383 
    3740 1.0746867e-17   -284.27909 -7.6727451e-10    4715.7556    3.1868027    16.769383 
    3750 1.0915362e-17   -284.27909 2.0006358e-10    4715.7556    3.1868027    16.769383 
    3760 1.0977655e-17   -284.27909 6.1979994e-10    4715.7556    3.1868027    16.769383 
    3770 1.0929642e-17   -284.27909 -4.7327524e-10    4715.7556    3.1868027    16.769383 
    3780 1.0771159e-17   -284.27909 -3.8842961e-10    4715.7556    3.1868027    16.769383 
    3790 1.0506616e-17   -284.27909 6.6197206e-10    4715.7556    3.1868027    16.769383 
    3800 1.0145541e-17   -284.27909 7.363572e-11    4715.7556    3.1868027    16.769383 
    3810 9.7030009e-18   -284.27909 -7.2498213e-10    4715.7556    3.1868027    16.769383 
    3820 9.1999496e-18   -284.27909 2.4219212e-10    4715.7556    3.1868027    16.769383 
    3830 8.6633911e-18   -284.27909 5.7790479e-10    4715.7556    3.1868027    16.769383 
    3840 8.1263471e-18   -284.27909 -5.1524559e-10    4715.7556    3.1868027    16.769383 
    3850 7.6276553e-18   -284.27909 -3.4724235e-10    4715.7556    3.1868027    16.769383 
    3860 7.2115243e-18   -284.27909 6.6276373e-10    4715.7556    3.1868027    16.769383 
    3870 6.9268353e-18   -284.27909 -1.0569444e-11    4715.7556    3.1868027    16.769383 
    3880 6.8262522e-18   -284.27909 -6.8271517e-10    4715.7556    3.1868027    16.769383 
    3890 6.9650198e-18   -284.27909 3.6821088e-10    4715.7556    3.1868027    16.769383 
    3900 7.3995598e-18   -284.27909 5.355567e-10    4715.7556    3.1868027    16.769383 
    3910 8.1858653e-18   -284.27909 -5.9896215e-10    4715.7556    3.1868027    16.769383 
    3920 9.3776409e-18   -284.27909 -2.630645e-10    4715.7556    3.1868027    16.769383 
    3930 1.1024348e-17   -284.27909 7.4643994e-10    4715.7556    3.1868027    16.769383 
    3940 1.3169156e-17   -284.27909 -1.05779e-11    4715.7556    3.1868027    16.769383 
    3950 1.5846702e-17   -284.27909 -7.2523394e-10    4715.7556    3.1868027    16.769383 
    3960 1.9081052e-17   -284.27909 3.2619646e-10    4715.7556    3.1868027    16.769383 
    3970 2.2883751e-17   -284.27909 5.7758036e-10    4715.7556    3.1868027    16.769383 
    3980 2.7251896e-17   -284.27909 -5.9891743e-10    4715.7556    3.1868027    16.769383 
    3990 3.2166571e-17   -284.27909 -3.0469725e-10    4715.7556    3.1868027    16.769383 
    4000 3.7591735e-17   -284.27909 7.4612968e-10    4715.7556    3.1868027    16.769383 
    4010 4.3473447e-17   -284.27909 3.1600374e-11    4715.7556    3.1868027    16.769383 
    4020 4.9739609e-17   -284.27909 -8.5078284e-10    4715.7556    3.1868027    16.769383 
    4030 5.6300442e-17   -284.27909 2.8409884e-10    4715.7556    3.1868027    16.769383 
    4040 6.3049627e-17   -284.27909 7.0392871e-10    4715.7556    3.1868027    16.769383 
    4050 6.9866109e-17   -284.27909 -5.1544059e-10    4715.7556    3.1868027    16.769383 
    4060 7.6616715e-17   -284.27909 -5.1577365e-10    4715.7556    3.1868027    16.769383 
    4070 8.3159677e-17   -284.27909 7.4651066e-10    4715.7556    3.1868027    16.769383 
    4080 8.9348815e-17   -284.27909 1.9957967e-10    4715.7556    3.1868027    16.769383 
    4090 9.5038443e-17   -284.27909 -8.0950866e-10    4715.7556    3.1868027    16.769383 
    4100 1.0008907e-16   -284.27909 7.3236325e-11    4715.7556    3.1868027    16.769383 
    4110 1.0437359e-16   -284.27909 7.8796839e-10    4715.7556    3.1868027    16.769383 
    4120 1.0778403e-16   -284.27909 -3.8909602e-10    4715.7556    3.1868027    16.769383 
    4130 1.1023836e-16   -284.27909 -6.4130023e-10    4715.7556    3.1868027    16.769383 
    4140 1.1168749e-16   -284.27909 6.1973689e-10    4715.7556    3.1868027    16.769383 
    4150 1.121222e-16   -284.27909 4.1026401e-10    4715.7556    3.1868027    16.769383 
    4160 1.1157955e-16   -284.27909 -8.5033724e-10    4715.7556    3.1868027    16.769383 
    4170 1.1014856e-16   -284.27909 -9.4578546e-11    4715.7556    3.1868027    16.769383 
    4180 1.0797519e-16   -284.27909 8.722092e-10    4715.7556    3.1868027    16.769383 
    4190 1.0526578e-16   -284.27909 -2.6210639e-10    4715.7556    3.1868027    16.769383 
    4200 1.0228915e-16   -284.27909 -8.0885727e-10    4715.7556    3.1868027    16.769383 
    4210 9.9376896e-17   -284.27909 5.777762e-10    4715.7556    3.1868027    16.769383 
    4220 9.6921798e-17   -284.27909 5.3564011e-10    4715.7556    3.1868027    16.769383 
    4230 9.5373836e-17   -284.27909 -8.0944006e-10    4715.7556    3.1868027    16.769383 
    4240 9.5234049e-17   -284.27909 -2.1998326e-10    4715.7556    3.1868027    16.769383 
    4250 9.7045983e-17   -284.27909 9.1437282e-10    4715.7556    3.1868027    16.769383 
    4260 1.0138464e-16   -284.27909 -1.7861745e-10    4715.7556    3.1868027    16.769383 
    4270 1.0884322e-16   -284.27909 -8.5106019e-10    4715.7556    3.1868027    16.769383 
    4280 1.2001769e-16   -284.27909 5.7870461e-10    4715.7556    3.1868027    16.769383 
    4290 1.3548944e-16   -284.27909 5.7796235e-10    4715.7556    3.1868027    16.769383 
    4300 1.5580646e-16   -284.27909 -8.5097448e-10    4715.7556    3.1868027    16.769383 
    4310 1.8146354e-16   -284.27909 -2.2041118e-10    4715.7556    3.1868027    16.769383 
    4320 2.1288178e-16   -284.27909 9.5630182e-10    4715.7556    3.1868027    16.769383 
    4330 2.5038843e-16   -284.27909 -1.7816526e-10    4715.7556    3.1868027    16.769383 
    4340 2.941976e-16   -284.27909 -8.9350038e-10    4715.7556    3.1868027    16.769383 
    4350 3.4439253e-16   -284.27909 5.7843397e-10    4715.7556    3.1868027    16.769383 
    4360 4.0091033e-16   -284.27909 6.6222577e-10    4715.7556    3.1868027    16.769383 
    4370 4.635302e-16   -284.27909 -8.5135962e-10    4715.7556    3.1868027    16.769383 
    4380 5.3186542e-16   -284.27909 -3.4639834e-10    4715.7556    3.1868027    16.769383 
    4390 6.0536034e-16   -284.27909 1.0394959e-09    4715.7556    3.1868027    16.769383 
    4400 6.8329304e-16   -284.27909 -5.2587467e-11    4715.7556    3.1868027    16.769383 
    4410 7.6478439e-16   -284.27909 -9.7711648e-10    4715.7556    3.1868027    16.769383 
    4420 8.4881303e-16   -284.27909 4.520031e-10    4715.7556    3.1868027    16.769383 
    4430 9.3423768e-16   -284.27909 7.8871124e-10    4715.7556    3.1868027    16.769383 
    4440 1.0198264e-15   -284.27909 -8.0873767e-10    4715.7556    3.1868027    16.769383 
    4450 1.1042923e-15   -284.27909 -4.7204836e-10    4715.7556    3.1868027    16.769383 
    4460 1.1863361e-15   -284.27909 9.983583e-10    4715.7556    3.1868027    16.769383 
    4470 1.2646934e-15   -284.27909 1.1597154e-10    4715.7556    3.1868027    16.769383 
    4480 1.3381871e-15   -284.27909 -1.0192954e-09    4715.7556    3.1868027    16.769383 
    4490 1.4057833e-15   -284.27909 2.4167623e-10    4715.7556    3.1868027    16.769383 
    4500 1.4666488e-15   -284.27909 9.1436199e-10    4715.7556    3.1868027    16.769383 
    4510 1.5202082e-15   -284.27909 -5.9880196e-10    4715.7556    3.1868027    16.769383 
    4520 1.566199e-15   -284.27909 -7.2473651e-10    4715.7556    3.1868027    16.769383 
    4530 1.6047232e-15   -284.27909 8.7199711e-10    4715.7556    3.1868027    16.769383 
    4540 1.6362916e-15   -284.27909 4.5190369e-10    4715.7556    3.1868027    16.769383 
    4550 1.6618598e-15   -284.27909 -1.0612169e-09    4715.7556    3.1868027    16.769383 
    4560 1.6828525e-15   -284.27909 -1.3702333e-10    4715.7556    3.1868027    16.769383 
    4570 1.7011748e-15   -284.27909 1.0823526e-09    4715.7556    3.1868027    16.769383 
    4580 1.7192086e-15   -284.27909 -3.0409649e-10    4715.7556    3.1868027    16.769383 
    4590 1.7397919e-15   -284.27909 -1.0191984e-09    4715.7556    3.1868027    16.769383 
    4600  1.76618e-15   -284.27909 7.4552226e-10    4715.7556    3.1868027    16.769383 
    4610 1.8019887e-15   -284.27909 7.0444353e-10    4715.7556    3.1868027    16.769383 
    4620 1.8511177e-15   -284.27909 -1.0186593e-09    4715.7556    3.1868027    16.769383 
    4630 1.9176573e-15   -284.27909 -3.0419085e-10    4715.7556    3.1868027    16.769383 
    4640 2.0057773e-15   -284.27909 1.1669234e-09    4715.7556    3.1868027    16.769383 
    4650 2.1196025e-15   -284.27909 -1.7807312e-10    4715.7556    3.1868027    16.769383 
    4660 2.2630753e-15   -284.27909 -1.1453763e-09    4715.7556    3.1868027    16.769383 
    4670 2.4398124e-15   -284.27909 6.2040178e-10    4715.7556    3.1868027    16.769383 
    4680 2.6529563e-15   -284.27909 8.7300862e-10    4715.7556    3.1868027    16.769383 
    4690 2.9050307e-15   -284.27909 -9.3504993e-10    4715.7556    3.1868027    16.769383 
    4700 3.1978022e-15   -284.27909 -5.1480282e-10    4715.7556    3.1868027    16.769383 
    4710 3.5321569e-15   -284.27909 1.1663422e-09    4715.7556    3.1868027    16.769383 
    4720 3.9079977e-15   -284.27909 3.1939889e-11    4715.7556    3.1868027    16.769383 
    4730 4.3241667e-15   -284.27909 -1.1867562e-09    4715.7556    3.1868027    16.769383 
    4740 4.7784035e-15   -284.27909 4.5243779e-10    4715.7556    3.1868027    16.769383 
    4750 5.2673403e-15   -284.27909 9.9836217e-10    4715.7556    3.1868027    16.769383 
    4760 5.7865419e-15   -284.27909 -8.5122707e-10    4715.7556    3.1868027    16.769383 
    4770 6.3305918e-15   -284.27909 -6.8237679e-10    4715.7556    3.1868027    16.769383 
    4780 6.893232e-15   -284.27909 1.1255095e-09    4715.7556    3.1868027    16.769383 
    4790 7.4675521e-15   -284.27909 2.4268023e-10    4715.7556    3.1868027    16.769383 
    4800 8.0462271e-15   -284.27909 -1.3128383e-09    4715.7556    3.1868027    16.769383 
    4810 8.6218069e-15   -284.27909 2.412164e-10    4715.7556    3.1868027    16.769383 
    4820 9.1870462e-15   -284.27909 1.2513035e-09    4715.7556    3.1868027    16.769383 
    4830 9.7352669e-15   -284.27909 -7.2529563e-10    4715.7556    3.1868027    16.769383 
    4840 1.026075e-14   -284.27909 -9.3422354e-10    4715.7556    3.1868027    16.769383 
    4850 1.0759141e-14   -284.27909 1.0828473e-09    4715.7556    3.1868027    16.769383 
    4860 1.1227844e-14   -284.27909 5.3654544e-10    4715.7556    3.1868027    16.769383 
    4870 1.1666414e-14   -284.27909 -1.313556e-09    4715.7556    3.1868027    16.769383 
    4880 1.2076903e-14   -284.27909 -9.4743201e-11    4715.7556    3.1868027    16.769383 
    4890 1.2464162e-14   -284.27909 1.4191538e-09    4715.7556    3.1868027    16.769383 
    4900 1.2836066e-14   -284.27909 -4.3108216e-10    4715.7556    3.1868027    16.769383 
    4910 1.3203657e-14   -284.27909 -1.3124303e-09    4715.7556    3.1868027    16.769383 
    4920 1.3581178e-14   -284.27909 9.1528973e-10    4715.7556    3.1868027    16.769383 
    4930 1.3985988e-14   -284.27909 9.9928587e-10    4715.7556    3.1868027    16.769383 
    4940 1.4438346e-14   -284.27909 -1.3136129e-09    4715.7556    3.1868027    16.769383 
    4950 1.496106e-14   -284.27909 -5.1406841e-10    4715.7556    3.1868027    16.769383 
    4960 1.5578992e-14   -284.27909 1.5456678e-09    4715.7556    3.1868027    16.769383 
    4970 1.6318421e-14   -284.27909 -1.040682e-11    4715.7556    3.1868027    16.769383 
    4980 1.7206283e-14   -284.27909 -1.5648636e-09    4715.7556    3.1868027    16.769383 
    4990 1.8269295e-14   -284.27909 5.7846047e-10    4715.7556    3.1868027    16.769383 
    5000 1.9532985e-14   -284.27909  1.37771e-09    4715.7556    3.1868027    16.769383 
    5010 2.1020668e-14   -284.27909 -1.1440786e-09    4715.7556    3.1868027    16.769383 
    5020 2.2752389e-14   -284.27909 -9.7695528e-10    4715.7556    3.1868027    16.769383 
    5030 2.4743899e-14   -284.27909 1.5868333e-09    4715.7556    3.1868027    16.769383 
    5040 2.7005688e-14   -284.27909 3.694397e-10    4715.7556    3.1868027    16.769383 
    5050 2.9542155e-14   -284.27909 -1.6909129e-09    4715.7556    3.1868027    16.769383 
    5060 3.2350957e-14   -284.27909 2.847875e-10    4715.7556    3.1868027    16.769383 
    5070 3.5422593e-14   -284.27909 1.5885139e-09    4715.7556    3.1868027    16.769383 
    5080 3.8740301e-14   -284.27909 -8.9241711e-10    4715.7556    3.1868027    16.769383 
    5090 4.2280297e-14   -284.27909 -1.3122149e-09    4715.7556    3.1868027    16.769383 
    5100 4.6012427e-14   -284.27909 1.3782449e-09    4715.7556    3.1868027    16.769383 
    5110 4.9901254e-14   -284.27909 9.1594348e-10    4715.7556    3.1868027    16.769383 
    5120 5.390762e-14   -284.27909 -1.6901493e-09    4715.7556    3.1868027    16.769383 
    5130 5.799069e-14   -284.27909 -3.4480051e-10    4715.7556    3.1868027    16.769383 
    5140 6.2110467e-14   -284.27909 1.8410957e-09    4715.7556    3.1868027    16.769383 
    5150 6.6230769e-14   -284.27909 -3.0276569e-10    4715.7556    3.1868027    16.769383 
    5160 7.0322595e-14   -284.27909 -1.7731598e-09    4715.7556    3.1868027    16.769383 
    5170 7.4367826e-14   -284.27909 1.0010628e-09    4715.7556    3.1868027    16.769383 
    5180 7.8363157e-14   -284.27909 1.4214428e-09    4715.7556    3.1868027    16.769383 
    5190 8.2324137e-14   -284.27909 -1.4794899e-09    4715.7556    3.1868027    16.769383 
    5200 8.6289166e-14   -284.27909 -8.4911528e-10    4715.7556    3.1868027    16.769383 
    5210 9.0323294e-14   -284.27909 1.8004191e-09    4715.7556    3.1868027    16.769383 
    5220 9.4521613e-14   -284.27909 1.6104379e-10    4715.7556    3.1868027    16.769383 
    5230 9.9012058e-14   -284.27909 -1.8987902e-09    4715.7556    3.1868027    16.769383 
    5240 1.039574e-13   -284.27909 5.8215536e-10    4715.7556    3.1868027    16.769383 
    5250 1.0955624e-13   -284.27909 1.6750724e-09    4715.7556    3.1868027    16.769383 
    5260 1.1604271e-13   -284.27909 -1.1819147e-09    4715.7556    3.1868027    16.769383 
    5270 1.2368491e-13   -284.27909 -1.3092819e-09    4715.7556    3.1868027    16.769383 
    5280 1.3278162e-13   -284.27909 1.7179697e-09    4715.7556    3.1868027    16.769383 
    5290 1.4365739e-13   -284.27909 6.6645985e-10    4715.7556    3.1868027    16.769383 
    5300 1.5665591e-13   -284.27909 -2.0233255e-09    4715.7556    3.1868027    16.769383 
    5310 1.7213149e-13   -284.27909 3.7157319e-11    4715.7556    3.1868027    16.769383 
    5320 1.904389e-13   -284.27909 2.0979374e-09    4715.7556    3.1868027    16.769383 
    5330 2.1192155e-13   -284.27909 -8.037242e-10    4715.7556    3.1868027    16.769383 
    5340 2.3689828e-13   -284.27909 -1.8542202e-09    4715.7556    3.1868027    16.769383 
    5350 2.6564915e-13   -284.27909 1.4676461e-09    4715.7556    3.1868027    16.769383 
    5360 2.9840039e-13   -284.27909 1.3411553e-09    4715.7556    3.1868027    16.769383 
    5370 3.353093e-13   -284.27909 -1.9794078e-09    4715.7556    3.1868027    16.769383 
    5380 3.7644946e-13   -284.27909 -6.3328388e-10    4715.7556    3.1868027    16.769383 
    5390 4.2179699e-13   -284.27909 2.2670718e-09    4715.7556    3.1868027    16.769383 
    5400 4.7121861e-13   -284.27909 -1.2854517e-10    4715.7556    3.1868027    16.769383 
    5410 5.2446222e-13   -284.27909 -2.2720689e-09    4715.7556    3.1868027    16.769383 
    5420 5.8115084e-13   -284.27909 9.662836e-10    4715.7556    3.1868027    16.769383 
    5430 6.4078074e-13   -284.27909 2.0160922e-09    4715.7556    3.1868027    16.769383 
    5440 7.027245e-13   -284.27909 -1.764575e-09    4715.7556    3.1868027    16.769383 
    5450 7.6623974e-13   -284.27909 -1.3424787e-09    4715.7556    3.1868027    16.769383 
    5460 8.3048413e-13   -284.27909 2.2731541e-09    4715.7556    3.1868027    16.769383 
    5470 8.9453723e-13   -284.27909 5.0909982e-10    4715.7556    3.1868027    16.769383 
    5480 9.5742925e-13   -284.27909 -2.4736453e-09    4715.7556    3.1868027    16.769383 
    5490 1.0181772e-12   -284.27909 3.4466532e-10    4715.7556    3.1868027    16.769383 
    5500 1.0758276e-12   -284.27909 2.3648676e-09    4715.7556    3.1868027    16.769383 
    5510 1.1295065e-12   -284.27909 -1.1632157e-09    4715.7556    3.1868027    16.769383 
    5520 1.178474e-12   -284.27909 -1.9589289e-09    4715.7556    3.1868027    16.769383 
    5530 1.2221846e-12   -284.27909 1.8699007e-09    4715.7556    3.1868027    16.769383 
    5540 1.2603497e-12   -284.27909 1.3696936e-09    4715.7556    3.1868027    16.769383 
    5550 1.2930019e-12   -284.27909 -2.4102233e-09    4715.7556    3.1868027    16.769383 
    5560 1.3205582e-12   -284.27909 -5.1524443e-10    4715.7556    3.1868027    16.769383 
    5570 1.3438797e-12   -284.27909 2.5994954e-09    4715.7556    3.1868027    16.769383 
    5580 1.3643251e-12   -284.27909 -5.483667e-10    4715.7556    3.1868027    16.769383 
    5590 1.3837955e-12   -284.27909 -2.4345954e-09    4715.7556    3.1868027    16.769383 
    5600 1.4047657e-12   -284.27909 1.4364482e-09    4715.7556    3.1868027    16.769383 
    5610 1.4303017e-12   -284.27909 1.9456486e-09    4715.7556    3.1868027    16.769383 
    5620 1.464058e-12   -284.27909 -2.29591e-09    4715.7556    3.1868027    16.769383 
    5630 1.510255e-12   -284.27909 -1.1142313e-09    4715.7556    3.1868027    16.769383 
    5640 1.5736314e-12   -284.27909 2.7564725e-09    4715.7556    3.1868027    16.769383 
    5650 1.6593707e-12   -284.27909 -1.3210381e-11    4715.7556    3.1868027    16.769383 
    5660 1.7730008e-12   -284.27909 -2.8255883e-09    4715.7556    3.1868027    16.769383 
    5670 1.9202649e-12   -284.27909 1.1272932e-09    4715.7556    3.1868027    16.769383 
    5680 2.1069649e-12   -284.27909 2.4352732e-09    4715.7556    3.1868027    16.769383 
    5690 2.3387779e-12   -284.27909 -2.1444601e-09    4715.7556    3.1868027    16.769383 
    5700 2.6210494e-12   -284.27909 -1.5529675e-09    4715.7556    3.1868027    16.769383 
    5710 2.9585658e-12   -284.27909 2.7782463e-09    4715.7556    3.1868027    16.769383 
    5720 3.3553119e-12   -284.27909 4.2708416e-10    4715.7556    3.1868027    16.769383 
    5730 3.8142202e-12   -284.27909 -2.9746356e-09    4715.7556    3.1868027    16.769383 
    5740 4.3369194e-12   -284.27909 8.5276433e-10    4715.7556    3.1868027    16.769383 
    5750 4.9234914e-12   -284.27909 2.6637218e-09    4715.7556    3.1868027    16.769383 
    5760 5.5722466e-12   -284.27909 -1.9974854e-09    4715.7556    3.1868027    16.769383 
    5770 6.2795293e-12   -284.27909 -1.8255602e-09    4715.7556    3.1868027    16.769383 
    5780 7.0395645e-12   -284.27909 2.7213329e-09    4715.7556    3.1868027    16.769383 
    5790 7.8443589e-12   -284.27909 7.129016e-10    4715.7556    3.1868027    16.769383 
    5800 8.6836666e-12   -284.27909 -3.0176393e-09    4715.7556    3.1868027    16.769383 
    5810 9.5450337e-12   -284.27909 5.6818563e-10    4715.7556    3.1868027    16.769383 
    5820 1.041393e-11   -284.27909 2.8126646e-09    4715.7556    3.1868027    16.769383 
    5830 1.1273979e-11   -284.27909 -1.8754942e-09    4715.7556    3.1868027    16.769383 
    5840 1.210729e-11   -284.27909 -2.0204337e-09    4715.7556    3.1868027    16.769383 
    5850 1.2894904e-11   -284.27909 2.6734484e-09    4715.7556    3.1868027    16.769383 
    5860 1.3617345e-11   -284.27909 8.9706338e-10    4715.7556    3.1868027    16.769383 
    5870 1.4255282e-11   -284.27909 -3.0594753e-09    4715.7556    3.1868027    16.769383 
    5880 1.4790292e-11   -284.27909 4.2784729e-10    4715.7556    3.1868027    16.769383 
    5890 1.5205714e-11   -284.27909 2.9110625e-09    4715.7556    3.1868027    16.769383 
    5900 1.5487581e-11   -284.27909 -1.7050756e-09    4715.7556    3.1868027    16.769383 
    5910 1.5625599e-11   -284.27909 -2.2817601e-09    4715.7556    3.1868027    16.769383 
    5920 1.561416e-11   -284.27909 2.5671611e-09    4715.7556    3.1868027    16.769383 
    5930 1.5453354e-11   -284.27909 1.2833748e-09    4715.7556    3.1868027    16.769383 
    5940 1.5149941e-11   -284.27909 -3.1932004e-09    4715.7556    3.1868027    16.769383 
    5950 1.4718246e-11   -284.27909 6.5844633e-11    4715.7556    3.1868027    16.769383 
    5960 1.4180942e-11   -284.27909 3.1996434e-09    4715.7556    3.1868027    16.769383 
    5970 1.3569665e-11   -284.27909 -1.4859628e-09    4715.7556    3.1868027    16.769383 
    5980 1.2925429e-11   -284.27909 -2.6819853e-09    4715.7556    3.1868027    16.769383 
    5990 1.229879e-11   -284.27909 2.5912046e-09    4715.7556    3.1868027    16.769383 
    6000 1.1749715e-11   -284.27909 1.681582e-09    4715.7556    3.1868027    16.769383 
    6010 1.1347128e-11   -284.27909 -3.3529543e-09    4715.7556    3.1868027    16.769383 
    6020 1.1168096e-11   -284.27909 -1.97503e-10    4715.7556    3.1868027    16.769383 
    6030 1.1296634e-11   -284.27909 3.4976617e-09    4715.7556    3.1868027    16.769383 
    6040 1.1822113e-11   -284.27909 -1.3050844e-09    4715.7556    3.1868027    16.769383 
    6050 1.283728e-11   -284.27909 -3.0075653e-09    4715.7556    3.1868027    16.769383 
    6060 1.443589e-11   -284.27909 2.5534307e-09    4715.7556    3.1868027    16.769383 
    6070 1.6709996e-11   -284.27909 2.0112642e-09    4715.7556    3.1868027    16.769383 
    6080 1.9746921e-11   -284.27909 -3.4564944e-09    4715.7556    3.1868027    16.769383 
    6090 2.3626004e-11   -284.27909 -5.2467332e-10    4715.7556    3.1868027    16.769383 
    6100 2.8415174e-11   -284.27909 3.6620797e-09    4715.7556    3.1868027    16.769383 
    6110 3.4167464e-11   -284.27909 -1.064254e-09    4715.7556    3.1868027    16.769383 
    6120 4.0917586e-11   -284.27909 -3.2696979e-09    4715.7556    3.1868027    16.769383 
    6130 4.8678685e-11   -284.27909 2.4302892e-09    4715.7556    3.1868027    16.769383 
    6140 5.7439426e-11   -284.27909 2.336223e-09    4715.7556    3.1868027    16.769383 
    6150 6.7161559e-11   -284.27909 -3.461826e-09    4715.7556    3.1868027    16.769383 
    6160 7.7778131e-11   -284.27909 -8.8041282e-10    4715.7556    3.1868027    16.769383 
    6170 8.9192491e-11   -284.27909 3.909226e-09    4715.7556    3.1868027    16.769383 
    6180 1.0127826e-10   -284.27909 -7.7201633e-10    4715.7556    3.1868027    16.769383 
    6190 1.1388037e-10   -284.27909 -3.6142287e-09    4715.7556    3.1868027    16.769383 
    6200 1.2681738e-10   -284.27909 2.2828228e-09    4715.7556    3.1868027    16.769383 
    6210 1.3988508e-10   -284.27909 2.8456419e-09    4715.7556    3.1868027    16.769383 
    6220 1.5286148e-10   -284.27909 -3.5208154e-09    4715.7556    3.1868027    16.769383 
    6230 1.6551328e-10   -284.27909 -1.298965e-09    4715.7556    3.1868027    16.769383 
    6240 1.7760372e-10   -284.27909 4.0926174e-09    4715.7556    3.1868027    16.769383 
    6250 1.8890179e-10   -284.27909 -3.7575622e-10    4715.7556    3.1868027    16.769383 
    6260 1.9919271e-10   -284.27909 -3.9830313e-09    4715.7556    3.1868027    16.769383 
    6270 2.0828946e-10   -284.27909 2.1007409e-09    4715.7556    3.1868027    16.769383 
    6280 2.1604512e-10   -284.27909 3.1589918e-09    4715.7556    3.1868027    16.769383 
    6290 2.223658e-10   -284.27909 -3.4571733e-09    4715.7556    3.1868027    16.769383 
    6300 2.2722366e-10   -284.27909 -1.6951246e-09    4715.7556    3.1868027    16.769383 
    6310 2.3066981e-10   -284.27909 4.1912101e-09    4715.7556    3.1868027    16.769383 
    6320 2.3284643e-10   -284.27909 -5.4396899e-11    4715.7556    3.1868027    16.769383 
    6330 2.339978e-10   -284.27909 -4.1852015e-09    4715.7556    3.1868027    16.769383 
    6340 2.344795e-10   -284.27909 1.8342383e-09    4715.7556    3.1868027    16.769383 
    6350 2.3476556e-10   -284.27909 3.4442953e-09    4715.7556    3.1868027    16.769383 
    6360 2.354527e-10   -284.27909 -3.3588691e-09    4715.7556    3.1868027    16.769383 
    6370 2.372614e-10   -284.27909 -2.0702575e-09    4715.7556    3.1868027    16.769383 
    6380 2.4103331e-10   -284.27909 4.1440372e-09    4715.7556    3.1868027    16.769383 
    6390 2.4772452e-10   -284.27909 3.4748389e-10    4715.7556    3.1868027    16.769383 
    6400 2.5839452e-10   -284.27909 -4.4737761e-09    4715.7556    3.1868027    16.769383 
    6410 2.7419065e-10   -284.27909 1.4360009e-09    4715.7556    3.1868027    16.769383 
    6420 2.9632799e-10   -284.27909 3.8649619e-09    4715.7556    3.1868027    16.769383 
    6430 3.2606487e-10   -284.27909 -3.117921e-09    4715.7556    3.1868027    16.769383 
    6440 3.6467425e-10   -284.27909 -2.6578578e-09    4715.7556    3.1868027    16.769383 
    6450 4.1341151e-10   -284.27909 4.2038992e-09    4715.7556    3.1868027    16.769383 
    6460 4.7347935e-10   -284.27909 9.1466585e-10    4715.7556    3.1868027    16.769383 
    6470 5.4599068e-10   -284.27909 -4.689771e-09    4715.7556    3.1868027    16.769383 
    6480 6.3193056e-10   -284.27909 9.950187e-10    4715.7556    3.1868027    16.769383 
    6490 7.3211854e-10   -284.27909 4.295737e-09    4715.7556    3.1868027    16.769383 
    6500 8.4717279e-10   -284.27909 -2.7757138e-09    4715.7556    3.1868027    16.769383 
    6510 9.7747758e-10   -284.27909 -3.106827e-09    4715.7556    3.1868027    16.769383 
    6520 1.1231558e-09   -284.27909 4.1552078e-09    4715.7556    3.1868027    16.769383 
    6530 1.2840483e-09   -284.27909 1.4569347e-09    4715.7556    3.1868027    16.769383 
    6540 1.4597014e-09   -284.27909 -4.6612173e-09    4715.7556    3.1868027    16.769383 
    6550 1.649365e-09   -284.27909 5.8341988e-10    4715.7556    3.1868027    16.769383 
    6560 1.8520018e-09   -284.27909 4.6144074e-09    4715.7556    3.1868027    16.769383 
    6570 2.0663098e-09   -284.27909 -2.1630765e-09    4715.7556    3.1868027    16.769383 
    6580 2.2907584e-09   -284.27909 -3.4450565e-09    4715.7556    3.1868027    16.769383 
    6590 2.5236391e-09   -284.27909 3.9129288e-09    4715.7556    3.1868027    16.769383 
    6600 2.7631315e-09   -284.27909 2.1974993e-09    4715.7556    3.1868027    16.769383 
    6610 3.0073832e-09   -284.27909 -4.445317e-09    4715.7556    3.1868027    16.769383 
    6620 3.2546038e-09   -284.27909 -7.185918e-11    4715.7556    3.1868027    16.769383 
    6630 3.5031711e-09   -284.27909 4.9419742e-09    4715.7556    3.1868027    16.769383 
    6640 3.7517481e-09   -284.27909 -1.6442104e-09    4715.7556    3.1868027    16.769383 
    6650 3.999407e-09   -284.27909 -3.9600332e-09    4715.7556    3.1868027    16.769383 
    6660 4.2457586e-09   -284.27909 3.7167997e-09    4715.7556    3.1868027    16.769383 
    6670 4.4910816e-09   -284.27909 2.7134327e-09    4715.7556    3.1868027    16.769383 
    6680 4.7364493e-09   -284.27909 -4.5979072e-09    4715.7556    3.1868027    16.769383 
    6690 4.9838472e-09   -284.27909 -6.4480482e-10    4715.7556    3.1868027    16.769383 
    6700 5.2362788e-09   -284.27909 5.1427936e-09    4715.7556    3.1868027    16.769383 
    6710 5.4978519e-09   -284.27909 -1.3815651e-09    4715.7556    3.1868027    16.769383 
    6720 5.773843e-09   -284.27909 -4.617832e-09    4715.7556    3.1868027    16.769383 
    6730 6.0707335e-09   -284.27909 3.1701231e-09    4715.7556    3.1868027    16.769383 
    6740 6.3962142e-09   -284.27909 3.3178385e-09    4715.7556    3.1868027    16.769383 
    6750 6.7591548e-09   -284.27909 -4.8035163e-09    4715.7556    3.1868027    16.769383 
    6760 7.1695349e-09   -284.27909 -1.5532015e-09    4715.7556    3.1868027    16.769383 
    6770 7.6383373e-09   -284.27909 5.0249033e-09    4715.7556    3.1868027    16.769383 
    6780 8.1774014e-09   -284.27909 -1.0392928e-09    4715.7556    3.1868027    16.769383 
    6790 8.7992406e-09   -284.27909 -5.1627831e-09    4715.7556    3.1868027    16.769383 
    6800 9.5168263e-09   -284.27909 2.6417474e-09    4715.7556    3.1868027    16.769383 
    6810 1.0343344e-08   -284.27909 3.489634e-09    4715.7556    3.1868027    16.769383 
    6820 1.1291931e-08   -284.27909 -4.6418959e-09    4715.7556    3.1868027    16.769383 
    6830 1.2375402e-08   -284.27909 -2.0729264e-09    4715.7556    3.1868027    16.769383 
    6840 1.3605978e-08   -284.27909 5.2521456e-09    4715.7556    3.1868027    16.769383 
    6850 1.4995027e-08   -284.27909 -2.763152e-10    4715.7556    3.1868027    16.769383 
    6860 1.6552842e-08   -284.27909 -5.2634405e-09    4715.7556    3.1868027    16.769383 
    6870 1.8288455e-08   -284.27909 2.4439857e-09    4715.7556    3.1868027    16.769383 
    6880 2.0209519e-08   -284.27909 4.7131429e-09    4715.7556    3.1868027    16.769383 
    6890 2.2322274e-08   -284.27909 -3.7101846e-09    4715.7556    3.1868027    16.769383 
    6900 2.4631603e-08   -284.27909 -2.3454796e-09    4715.7556    3.1868027    16.769383 
    6910 2.7141202e-08   -284.27909 5.9593288e-09    4715.7556    3.1868027    16.769383 
    6920 2.985388e-08   -284.27909 1.4499208e-09    4715.7556    3.1868027    16.769383 
    6930 3.2771991e-08   -284.27909 -4.8001025e-09    4715.7556    3.1868027    16.769383 
    6940 3.5898018e-08   -284.27909 2.6648248e-09    4715.7556    3.1868027    16.769383 
    6950 3.9235301e-08   -284.27909 6.0792007e-09    4715.7556    3.1868027    16.769383 
    6960 4.2788915e-08   -284.27909 -2.6744638e-09    4715.7556    3.1868027    16.769383 
    6970 4.6566691e-08   -284.27909 -2.2492539e-09    4715.7556    3.1868027    16.769383 
    6980 5.0580368e-08   -284.27909 6.5839477e-09    4715.7556    3.1868027    16.769383 
    6990 5.4846851e-08   -284.27909 2.4304622e-09    4715.7556    3.1868027    16.769383 
    7000 5.9389567e-08   -284.27909 -4.6529118e-09    4715.7556    3.1868027    16.769383 
    7010 6.4239867e-08   -284.27909 2.0763059e-09    4715.7556    3.1868027    16.769383 
    7020 6.9438454e-08   -284.27909 6.4089696e-09    4715.7556    3.1868027    16.769383 
    7030 7.5036794e-08   -284.27909 -2.5205832e-09    4715.7556    3.1868027    16.769383 
    7040 8.1098464e-08   -284.27909 -3.6142081e-09    4715.7556    3.1868027    16.769383 
    7050 8.7700384e-08   -284.27909 5.3464324e-09    4715.7556    3.1868027    16.769383 
    7060 9.4933903e-08   -284.27909 2.3049813e-09    4715.7556    3.1868027    16.769383 
    7070 1.0290568e-07   -284.27909 -6.1572262e-09    4715.7556    3.1868027    16.769383 
    7080 1.1173834e-07   -284.27909 3.3536284e-12    4715.7556    3.1868027    16.769383 
    7090 1.2157082e-07   -284.27909 5.3315793e-09    4715.7556    3.1868027    16.769383 
    7100 1.3255848e-07   -284.27909 -3.4432191e-09    4715.7556    3.1868027    16.769383 
    7110 1.4487287e-07   -284.27909 -5.656772e-09    4715.7556    3.1868027    16.769383 
    7120 1.5870122e-07   -284.27909 3.8485158e-09    4715.7556    3.1868027    16.769383 
    7130 1.7424563e-07   -284.27909 2.1440164e-09    4715.7556    3.1868027    16.769383 
    7140 1.9172209e-07   -284.27909 -6.6894538e-09    4715.7556    3.1868027    16.769383 
    7150 2.1135935e-07   -284.27909 -9.017935e-10    4715.7556    3.1868027    16.769383 
    7160 2.3339762e-07   -284.27909 6.2856974e-09    4715.7556    3.1868027    16.769383 
    7170 2.5808755e-07   -284.27909 -1.6047001e-09    4715.7556    3.1868027    16.769383 
    7180 2.8568925e-07   -284.27909 -4.4870146e-09    4715.7556    3.1868027    16.769383 
    7190 3.1647181e-07   -284.27909 6.4981762e-09    4715.7556    3.1868027    16.769383 
    7200 3.5071339e-07   -284.27909 6.8153625e-09    4715.7556    3.1868027    16.769383 
    7210 3.8870218e-07   -284.27909 -2.2744609e-09    4715.7556    3.1868027    16.769383 
    7220 4.307384e-07   -284.27909 3.7227855e-09    4715.7556    3.1868027    16.769383 
    7230 4.7713763e-07   -284.27909 1.3307962e-08    4715.7556    3.1868027    16.769383 
    7240 5.2823578e-07   -284.27909 6.2731617e-09    4715.7556    3.1868027    16.769383 
    7250 5.8439588e-07   -284.27909 2.3367219e-09    4715.7556    3.1868027    16.769383 
    7260 6.4601695e-07   -284.27909 1.4143335e-08    4715.7556    3.1868027    16.769383 
    7270 7.135453e-07   -284.27909 1.6101604e-08    4715.7556    3.1868027    16.769383 
    7280 7.8748828e-07   -284.27909 5.8746985e-09    4715.7556    3.1868027    16.769383 
    7290 8.6843074e-07   -284.27909 1.0486692e-08    4715.7556    3.1868027    16.769383 
    7300 9.5705441e-07   -284.27909 2.0412152e-08    4715.7556    3.1868027    16.769383 
    7310  1.05416e-06   -284.27908 1.2708634e-08    4715.7556    3.1868027    16.769383 
    7320 1.1606921e-06   -284.27908 5.9952664e-09    4715.7556    3.1868027    16.769383 
    7330 1.2777675e-06   -284.27908 1.5928788e-08    4715.7556    3.1868027    16.769383 
    7340 1.4067047e-06   -284.27908 1.7066523e-08    4715.7556    3.1868027    16.769383 
    7350 1.5490577e-06   -284.27908 3.8847846e-09    4715.7556    3.1868027    16.769383 
    7360 1.7066498e-06   -284.27908 4.4030388e-09    4715.7556    3.1868027    16.769383 
    7370 1.8816111e-06   -284.27908 1.2784052e-08    4715.7556    3.1868027    16.769383 
    7380 2.0764153e-06   -284.27908 3.3814493e-09    4715.7556    3.1868027    16.769383 
    7390 2.293919e-06   -284.27908 -7.5081611e-09    4715.7556    3.1868027    16.769383 
    7400 2.5373996e-06   -284.27908 -9.1995613e-11    4715.7556    3.1868027    16.769383 
    7410 2.8105947e-06   -284.27908 1.082833e-09    4715.7556    3.1868027    16.769383 
    7420 3.1177392e-06   -284.27908 -1.3161682e-08    4715.7556    3.1868027    16.769383 
    7430 3.4636027e-06   -284.27908 -1.4123989e-08    4715.7556    3.1868027    16.769383 
    7440 3.8535245e-06   -284.27908 -3.5177199e-09    4715.7556    3.1868027    16.769383 
    7450 4.2934488e-06   -284.27908 -8.8911794e-09    4715.7556    3.1868027    16.769383 
    7460 4.789957e-06   -284.27908 -1.7069032e-08    4715.7556    3.1868027    16.769383 
    7470 5.3503009e-06   -284.27908 -4.0521947e-09    4715.7556    3.1868027    16.769383 
    7480 5.9824354e-06   -284.27908 7.1508224e-09    4715.7556    3.1868027    16.769383 
    7490 6.6950525e-06   -284.27908 2.6222331e-09    4715.7556    3.1868027    16.769383 
    7500 7.4976186e-06   -284.27908 1.209763e-08    4715.7556    3.1868027    16.769383 
    7510 8.400417e-06   -284.27908 3.8241171e-08    4715.7556    3.1868027    16.769383 
    7520 9.4145982e-06   -284.27908 5.0358074e-08    4715.7556    3.1868027    16.769383 
    7530 1.0552241e-05   -284.27908 5.9067542e-08    4715.7556    3.1868027    16.769383 
    7540 1.182643e-05   -284.27908 9.1027669e-08    4715.7556    3.1868027    16.769383 
    7550 1.3251351e-05   -284.27908 1.2490541e-07    4715.7556    3.1868027    16.769383 
    7560 1.484241e-05   -284.27908 1.4225062e-07    4715.7556    3.1868027    16.769383 
    7570 1.6616386e-05   -284.27908 1.7203963e-07    4715.7556    3.1868027    16.769383 
    7580 1.8591617e-05   -284.27908 2.2033245e-07    4715.7556    3.1868027    16.769383 
    7590 2.0788232e-05   -284.27908 2.5437724e-07    4715.7556    3.1868027    16.769383 
    7600 2.3228427e-05   -284.27908 2.8024823e-07    4715.7556    3.1868027    16.769384 
    7610 2.5936805e-05   -284.27908 3.2732329e-07    4715.7556    3.1868027    16.769384 
    7620 2.8940782e-05   -284.27908 3.7528554e-07    4715.7556    3.1868027    16.769384 
    7630 3.2271056e-05   -284.27908 4.0106137e-07    4715.7556    3.1868027    16.769384 
    7640 3.5962167e-05   -284.27908 4.3227496e-07    4715.7556    3.1868027    16.769384 
    7650 4.0053142e-05   -284.27908 4.7881033e-07    4715.7556    3.1868027    16.769384 
    7660 4.4588234e-05   -284.27908 5.0619465e-07    4715.7556    3.1868027    16.769384 
    7670 4.9617763e-05   -284.27908 5.1616491e-07    4715.7557    3.1868027    16.769384 
    7680 5.519907e-05   -284.27908 5.4139866e-07    4715.7557    3.1868027    16.769384 
    7690 6.1397583e-05   -284.27908 5.6443256e-07    4715.7557    3.1868027    16.769384 
    7700 6.8288007e-05   -284.27908 5.5843089e-07    4715.7557    3.1868027    16.769384 
    7710 7.5955637e-05   -284.27908 5.5173814e-07    4715.7557    3.1868027    16.769384 
    7720 8.4497805e-05   -284.27908 5.5951683e-07    4715.7557    3.1868026    16.769384 
    7730 9.4025465e-05   -284.27907 5.4878026e-07    4715.7557    3.1868026    16.769384 
    7740 0.00010466491   -284.27907 5.2000529e-07    4715.7557    3.1868026    16.769384 
    7750 0.00011655967   -284.27907 5.1004442e-07    4715.7558    3.1868026    16.769384 
    7760 0.00012987248   -284.27907 5.0885331e-07    4715.7558    3.1868026    16.769384 
    7770 0.00014478756   -284.27907 4.8984773e-07    4715.7558    3.1868026    16.769384 
    7780 0.00016151289   -284.27907 4.8304599e-07    4715.7558    3.1868026    16.769384 
    7790 0.0001802828   -284.27907 5.1323224e-07    4715.7559    3.1868025    16.769384 
    7800 0.00020136074   -284.27906 5.5191028e-07    4715.7559    3.1868025    16.769384 
    7810 0.00022504224   -284.27906 5.9999402e-07    4715.7559    3.1868025    16.769384 
    7820 0.00025165818   -284.27906 7.0093743e-07     4715.756    3.1868025    16.769384 
    7830 0.00028157833   -284.27906 8.5344106e-07     4715.756    3.1868024    16.769384 
    7840 0.00031521521   -284.27905 1.0318307e-06    4715.7561    3.1868024    16.769384 
    7850 0.00035302843   -284.27905 1.2671223e-06    4715.7561    3.1868024    16.769384 
    7860 0.00039552944   -284.27905 1.5927831e-06    4715.7562    3.1868023    16.769384 
    7870 0.00044328683   -284.27904 1.9826822e-06    4715.7562    3.1868023    16.769384 
    7880 0.00049693236   -284.27904 2.433887e-06    4715.7563    3.1868022    16.769384 
    7890 0.00055716766   -284.27903 2.9924311e-06    4715.7564    3.1868022    16.769384 
    7900 0.00062477195   -284.27903 3.6598457e-06    4715.7565    3.1868021    16.769385 
    7910 0.0007006107   -284.27902 4.4042215e-06    4715.7566    3.1868021    16.769385 
    7920 0.00078564567   -284.27901 5.2503363e-06    4715.7567     3.186802    16.769385 
    7930 0.00088094623     -284.279 6.2306578e-06    4715.7568    3.1868019    16.769385 
    7940 0.0009877025   -284.27899 7.3134179e-06    4715.7569    3.1868018    16.769385 
    7950 0.0011072403   -284.27898 8.4822699e-06    4715.7571    3.1868017    16.769385 
    7960 0.0012410381   -284.27897 9.7757209e-06    4715.7573    3.1868016    16.769385 
    7970 0.0013907472   -284.27896 1.1190713e-05    4715.7575    3.1868014    16.769386 
    7980 0.0015582135   -284.27894 1.2681949e-05    4715.7577    3.1868013    16.769386 
    7990 0.0017455035   -284.27892 1.4260591e-05     4715.758    3.1868011    16.769386 
    8000 0.0019549334   -284.27891 1.5955349e-05    4715.7583    3.1868009    16.769387 
    8010 0.0021891023   -284.27888 1.7729209e-05    4715.7586    3.1868007    16.769387 
    8020 0.0024509294   -284.27886 1.9554881e-05    4715.7589    3.1868005    16.769387 
    8030  0.002743697   -284.27883 2.1468961e-05    4715.7593    3.1868002    16.769388 
    8040 0.0030710977    -284.2788 2.3476262e-05    4715.7598    3.1867999    16.769388 
    8050 0.0034372886   -284.27877 2.5536152e-05    4715.7603    3.1867995    16.769389 
    8060 0.0038469516   -284.27873 2.7667685e-05    4715.7609    3.1867991     16.76939 
    8070 0.0043053606   -284.27868 2.9923641e-05    4715.7615    3.1867987    16.769391 
    8080 0.0048184573   -284.27863 3.2297022e-05    4715.7623    3.1867982    16.769391 
    8090 0.0053929348   -284.27858 3.4789964e-05    4715.7631    3.1867977    16.769392 
    8100 0.0060363309   -284.27852 3.7483676e-05     4715.764    3.1867971    16.769393 
    8110 0.0067571316   -284.27845 4.0442131e-05     4715.765    3.1867964    16.769395 
    8120  0.007564886   -284.27837 4.3685617e-05    4715.7661    3.1867956    16.769396 
    8130 0.0084703325   -284.27829 4.730138e-05    4715.7674    3.1867948    16.769397 
    8140  0.009485539   -284.27819 5.1427547e-05    4715.7688    3.1867938    16.769399 
    8150  0.010624057   -284.27809 5.615031e-05    4715.7703    3.1867928    16.769401 
    8160  0.011901091   -284.27797 6.1563766e-05    4715.7721    3.1867916    16.769403 
    8170  0.013333686   -284.27784 6.7849385e-05     4715.774    3.1867903    16.769405 
    8180  0.014940931   -284.27769 7.518249e-05    4715.7762    3.1867888    16.769408 
    8190  0.016744184   -284.27753 8.3688488e-05    4715.7786    3.1867872    16.769411 
    8200  0.018767317   -284.27734 9.3551427e-05    4715.7813    3.1867853    16.769414 
    8210  0.021036988   -284.27714 0.00010500848    4715.7844    3.1867833    16.769418 
    8220  0.023582927   -284.27692 0.00011823502    4715.7878     3.186781    16.769422 
    8230  0.026438257   -284.27666 0.00013338674    4715.7915    3.1867784    16.769426 
    8240   0.02963984   -284.27638 0.00015068728    4715.7958    3.1867756    16.769431 
    8250  0.033228644   -284.27606 0.00017033184    4715.8005    3.1867724    16.769437 
    8260  0.037250142   -284.27571 0.00019242037    4715.8058    3.1867688    16.769443 
    8270  0.041754737   -284.27531 0.00021705806    4715.8117    3.1867648     16.76945 
    8280  0.046798211   -284.27487 0.00024435264    4715.8183    3.1867603    16.769458 
    8290  0.052442191   -284.27437 0.00027428085    4715.8258    3.1867553    16.769467 
    8300  0.058754635   -284.27382 0.00030670358    4715.8341    3.1867497    16.769477 
    8310   0.06581032   -284.27319 0.0003414474    4715.8434    3.1867434    16.769488 
    8320  0.073691334   -284.27249 0.00037819589    4715.8538    3.1867363      16.7695 
    8330   0.08248753   -284.27171 0.0004163825    4715.8655    3.1867285    16.769514 
    8340  0.092296959   -284.27083 0.00045526139    4715.8786    3.1867196    16.769529 
    8350   0.10322621   -284.26984 0.0004938863    4715.8932    3.1867097    16.769547 
    8360   0.11539067   -284.26874 0.00053092823    4715.9095    3.1866987    16.769566 
    8370   0.12891458    -284.2675 0.00056462999    4715.9278    3.1866863    16.769588 
    8380   0.14393097   -284.26611 0.00059283993    4715.9482    3.1866726    16.769612 
    8390    0.1605812   -284.26456 0.00061284481     4715.971    3.1866572    16.769639 
    8400   0.17901421   -284.26283 0.00062116951    4715.9964      3.18664    16.769669 
    8410   0.19938531   -284.26089 0.00061355829    4716.0247    3.1866209    16.769702 
    8420   0.22185432   -284.25872 0.00058487269    4716.0562    3.1865996     16.76974 
    8430   0.24658303   -284.25631 0.00052880431    4716.0912     3.186576    16.769781 
    8440   0.27373179   -284.25361 0.00043771188      4716.13    3.1865497    16.769827 
    8450   0.30345502   -284.25061 0.00030257137     4716.173    3.1865207    16.769878 
    8460    0.3358956   -284.24727 0.0001127479    4716.2206    3.1864885    16.769935 
    8470   0.37117781   -284.24356 -0.00014425206    4716.2731     3.186453    16.769997 
    8480   0.40939883   -284.23945 -0.00048277286     4716.331    3.1864139    16.770065 
    8490   0.45061866   -284.23489 -0.0009189649    4716.3946    3.1863709    16.770141 
    8500   0.49484844   -284.22984 -0.0014708097    4716.4644    3.1863238    16.770224 
    8510   0.54203732   -284.22428 -0.0021578484    4716.5407    3.1862723    16.770314 
    8520   0.59205808   -284.21814 -0.0030005393    4716.6239     3.186216    16.770413 
    8530   0.64469213   -284.21139 -0.0040195062    4716.7144    3.1861549     16.77052 
    8540   0.69961452   -284.20398 -0.0052345052    4716.8125    3.1860887    16.770636 
    8550   0.75638004   -284.19587 -0.0066627882    4716.9183    3.1860172    16.770762 
    8560   0.81441197   -284.18702 -0.0083170852    4717.0322    3.1859403    16.770897 
    8570   0.87299498   -284.17738 -0.010203433    4717.1541    3.1858579    16.771041 
    8580   0.93127436   -284.16691 -0.012318653    4717.2841    3.1857701    16.771195 
    8590   0.98826364   -284.15559 -0.014647637    4717.4221    3.1856769    16.771359 
[...]
  219050    104.00334   -221.58078   -172.17192    5508.7687    2.7280475    17.661117 
  219060    104.05773   -221.60913   -126.72215    5498.4526    2.7331658    17.650086 
  219070    104.28371   -221.47524    -75.24379    5487.5052    2.7386184    17.638365 
  219080    104.73371   -221.65928   -31.047051    5476.2325    2.7442558    17.626278 
  219090    105.44255   -221.75498    14.407568    5464.9163    2.7499383    17.614129 
  219100    106.41755   -221.98958    54.214045    5453.8233    2.7555317    17.602203 
  219110    107.63716   -221.99676    96.297969    5443.1924    2.7609134    17.590758 
  219120    109.04468   -222.18924    129.48237    5433.2523    2.7659645    17.580044 
  219130    110.54876    -222.4332     156.3006    5424.1966    2.7705822    17.570272 
  219140     112.0509   -223.01384    169.23993    5416.1676    2.7746894    17.561598 
  219150    113.42112   -223.22444    185.72721    5409.2427    2.7782415     17.55411 
  219160     114.5268   -223.65936     190.9841     5403.485    2.7812019     17.54788 
  219170    115.24241   -223.85764    196.65983    5398.9205    2.7835533    17.542937 
  219180    115.46457   -224.29577    191.14788     5395.556     2.785289    17.539292 
  219190    115.11126   -224.44382    188.06057    5393.3583     2.786424    17.536911 
  219200    114.13703   -224.61008    180.08654    5392.2917    2.7869751    17.535755 
  219210    112.56505   -224.74494    168.94061    5392.3034    2.7869691    17.535767 
  219220    110.45627    -224.6735    159.47818    5393.3195     2.786444    17.536869 
  219230    107.93752   -224.52286     148.9951    5395.2734    2.7854349    17.538986 
  219240    105.17497   -224.44766    134.06432     5398.096    2.7839784    17.542044 
  219250    102.35064   -224.36079    117.29699    5401.6978    2.7821221    17.545945 
  219260    99.627061   -224.15184    101.77191    5405.9825     2.779917    17.550583 
  219270    97.131225   -223.83531    87.299746    5410.8584     2.777412    17.555858 
  219280    94.953568   -223.64833    68.081265    5416.2343    2.7746552     17.56167 
  219290    93.134056   -223.45401    47.646049    5421.9979    2.7717058    17.567897 
  219300    91.697293   -223.19064    27.745265    5428.0283    2.7686265    17.574408 
  219310    90.643397    -223.0857    3.0413826    5434.2004    2.7654819    17.581066 
  219320    89.951799   -222.91889   -20.556164    5440.3724    2.7623445     17.58772 
  219330    89.592617   -222.90798   -47.886407    5446.4001    2.7592873    17.594213 
  219340    89.541524   -222.78065   -71.506982    5452.1254    2.7563898    17.600376 
  219350     89.77292    -222.8035   -97.308576    5457.4083    2.7537215    17.606059 
  219360    90.245687   -222.89333   -122.50452    5462.0965     2.751358    17.611099 
  219370    90.930157   -222.92174   -143.17377    5466.0375    2.7493743    17.615333 
  219380    91.794149   -223.07857   -163.36747     5469.106    2.7478317    17.618629 
  219390    92.813983   -223.31063   -181.18646    5471.1853    2.7467874    17.620862 
  219400    93.965206   -223.41802   -191.22179    5472.1763    2.7462899    17.621925 
  219410    95.225724    -223.4477   -194.31759    5472.0254    2.7463657    17.621764 
  219420    96.568244   -223.76513    -199.2979    5470.7135    2.7470243    17.620355 
  219430    97.968556   -223.90274   -194.51175    5468.2295    2.7482721    17.617688 
  219440    99.392614   -224.10297   -185.93775     5464.603     2.750096    17.613792 
  219450    100.80713   -224.19171   -169.41518    5459.8999    2.7524649    17.608738 
  219460    102.17673   -224.36318   -149.97802    5454.2226    2.7553299    17.602632 
  219470    103.45546   -224.39056   -122.38576    5447.6976    2.7586301     17.59561 
  219480    104.60952   -224.54185   -93.723663    5440.4909    2.7622844    17.587848 
  219490    105.59831   -224.63957   -60.171106    5432.7857     2.766202    17.579541 
  219500    106.38187   -224.70231   -22.847994    5424.7863     2.770281    17.570908 
  219510    106.92795    -224.7735    16.412891    5416.7159    2.7744085    17.562191 
  219520    107.21324   -224.60343    62.956766    5408.8153    2.7784611    17.553648 
  219530    107.21244   -224.82494    100.01389    5401.3443    2.7823042    17.545562 
  219540    106.92545   -224.89874     140.0857    5394.5302    2.7858186    17.538181 
  219550    106.33975    -224.8447    181.66059    5388.5942    2.7888875    17.531746 
  219560    105.46046   -224.56364     226.0765    5383.7696    2.7913867    17.526512 
  219570     104.3092   -224.15815    269.47366    5380.3043    2.7931846    17.522751 
  219580     102.9194   -223.83175    305.37112     5378.437    2.7941543    17.520723 
  219590    101.34169   -223.54717    333.36802    5378.3692    2.7941895     17.52065 
  219600    99.642577   -223.17245    355.53463    5380.2595    2.7932078    17.522702 
  219610    97.900742   -222.72543    370.28139    5384.2344    2.7911457    17.527016 
  219620    96.214099   -222.15438    377.99392    5390.3793    2.7879639    17.533681 
  219630    94.685388   -221.57844    375.12159    5398.7351    2.7836489    17.542736 
  219640    93.404089   -221.08411    359.40053     5409.286    2.7782193    17.554157 
  219650    92.447956   -220.62778    332.39897    5421.9534    2.7717285    17.567849 
  219660    91.880658      -220.28    293.49064    5436.5833    2.7642698    17.583636 
  219670    91.740356   -219.76085    251.21169    5452.9564    2.7559697     17.60127 
  219680    92.037311   -219.59357     194.4732     5470.821    2.7469703    17.620471 
  219690    92.759834     -219.171    140.31884    5489.8583    2.7374445    17.640885 
  219700    93.870583     -218.774    83.799002    5509.7359    2.7275686    17.662151 
  219710    95.293469   -218.28972    29.449241    5530.1095    2.7175199    17.683894 
  219720    96.922631   -217.85611   -24.570817    5550.6374    2.7074698    17.705748 
  219730    98.627998    -217.3906   -74.964944    5570.9794    2.6975836    17.727351 
  219740    100.28382   -216.84284   -119.45117    5590.8118    2.6880144    17.748363 
  219750    101.76823   -216.35581   -160.65746     5609.842    2.6788959    17.768477 
  219760    102.98709   -215.82865   -195.47984    5627.7973     2.670349    17.787414 
  219770    103.89197   -215.31227   -224.61129     5644.443     2.662474    17.804934 
  219780    104.46239   -214.80868   -247.73082    5659.5795    2.6553532    17.820835 
  219790    104.71025   -214.17651   -261.29687    5673.0575    2.6490447    17.834971 
  219800    104.66675   -213.61924   -270.17641    5684.7841    2.6435802    17.847251 
  219810    104.37834   -212.97388   -270.67401    5694.7038    2.6389753    17.857626 
  219820    103.89675   -212.34794   -265.69555    5702.8122    2.6352232    17.866097 
  219830    103.29277      -211.78    -256.6087    5709.1431     2.632301    17.872706 
  219840    102.63566   -211.35713   -246.03085    5713.7586    2.6301746    17.877521 
  219850     101.9898   -211.04234   -233.72847    5716.7426    2.6288017    17.880633 
  219860    101.41284   -210.62522   -215.41972    5718.1916    2.6281356    17.882143 
  219870    100.96403    -210.2652   -195.54925    5718.2293    2.6281183    17.882182 
  219880    100.69056   -210.11908   -178.47721    5716.9941    2.6286861    17.880895 
  219890    100.63011   -210.12084    -163.1524    5714.6069    2.6297841    17.878406 
  219900    100.78788   -210.07292   -145.32035    5711.1818    2.6313613    17.874833 
  219910    101.15029   -210.09252   -128.07704    5706.8526    2.6333574    17.870315 
  219920    101.68704   -210.19527   -111.95205    5701.7354    2.6357208    17.864973 
  219930    102.35527   -210.34456   -96.130284     5695.942    2.6384017     17.85892 
  219940    103.09834   -210.42713   -77.953279     5689.588    2.6413482    17.852277 
  219950    103.85847   -210.55124   -60.011417    5682.7992    2.6445036    17.845173 
  219960    104.57925   -210.65461   -40.888795    5675.6995    2.6478115    17.837739 
  219970     105.2017   -210.89585   -24.465995    5668.4059    2.6512185    17.830095 
  219980    105.68009   -211.11872   -7.2017308    5661.0266    2.6546745    17.822354 
  219990    105.99577   -211.22417     13.01557      5653.68     2.658124    17.814641 
  220000    106.11906   -211.25755    34.672049    5646.4952    2.6615063    17.807091 
  220010    106.03001   -211.26716    56.066441    5639.6065    2.6647573    17.799847 
  220020    105.73016   -211.43137    72.369928    5633.1406     2.667816    17.793042 
  220030    105.21895   -211.36236    92.253766    5627.2074    2.6706289    17.786793 
  220040    104.50126   -211.48428    104.95194    5621.9171     2.673142    17.781217 
  220050    103.58565   -211.58289    115.06318    5617.3491    2.6753158      17.7764 
  220060     102.4926   -211.66684    121.99993    5613.5574    2.6771228    17.772399 
  220070    101.24333   -211.79086    124.18208    5610.5767    2.6785451    17.769253 
  220080    99.863127   -211.76092    126.14014    5608.4231    2.6795736    17.766979 
  220090    98.385158   -211.74898    123.77385    5607.0974    2.6802072    17.765579 
  220100    96.857498   -211.85303    114.94556    5606.5765    2.6804562    17.765029 
  220110    95.340657   -211.99919    101.86539    5606.7999    2.6803494    17.765265 
  220120    93.893053   -212.13569    86.347691     5607.678    2.6799297    17.766192 
  220130    92.564298   -212.18478    70.859507    5609.1115    2.6792448    17.767706 
  220140    91.399453   -212.34051    51.345136    5610.9962    2.6783449    17.769696 
  220150     90.42834   -212.57577    29.068153    5613.2092    2.6772889    17.772032 
  220160    89.664582   -212.71535    8.8314731    5615.6097    2.6761445    17.774565 
  220170    89.119998   -212.93159   -12.964579     5618.066    2.6749744    17.777156 
  220180    88.800814   -213.10275   -32.898581    5620.4415    2.6738438    17.779661 
  220190     88.70752   -213.35294   -53.487203    5622.6037    2.6728156    17.781941 
  220200    88.836112   -213.48626   -69.629173    5624.4267    2.6719493    17.783862 
  220210    89.186636   -213.62777     -83.9786    5625.8091    2.6712927    17.785319 
  220220    89.754591   -213.63065   -92.750146    5626.6707    2.6708836    17.786227 
  220230    90.533366   -213.88719   -105.08829    5626.9492    2.6707515    17.786521 
  220240    91.514617   -214.07633   -113.00578    5626.5743    2.6709294    17.786125 
  220250    92.684706   -214.31696    -119.0828    5625.4972    2.6714408     17.78499 
  220260    94.028987   -214.45685   -119.43793    5623.6883    2.6723001    17.783084 
  220270    95.532832   -214.53982   -114.94005    5621.1457    2.6735089    17.780404 
  220280    97.180092   -214.70739    -108.8997    5617.9004    2.6750533    17.776981 
  220290    98.954374   -214.95431   -101.15918    5613.9965    2.6769134    17.772862 
  220300    100.82663   -215.22349   -90.407597    5609.4891    2.6790644    17.768105 
  220310    102.78229   -215.51385   -76.739983    5604.4527     2.681472    17.762785 
  220320    104.78634   -215.62466   -55.619702    5598.9799     2.684093    17.757002 
  220330    106.80514   -215.85078    -34.59762    5593.1977    2.6868678    17.750887 
  220340    108.78859   -215.99534   -9.5569285    5587.2436    2.6897311    17.744586 
  220350    110.67925   -216.10801    17.530732    5581.2766    2.6926067    17.738267 
  220360    112.41331   -216.14056    46.932104    5575.4684    2.6954117    17.732111 
  220370     113.9361   -216.07173    78.214893    5570.0016    2.6980571    17.726314 
  220380    115.19516   -215.97808    108.52626      5565.07    2.7004481    17.721081 
  220390    116.14436    -215.8859    136.27236    5560.8584    2.7024933    17.716609 
  220400    116.73671   -215.76865     161.2112    5557.5316    2.7041111    17.713076 
  220410    116.93958   -215.40522    187.89091    5555.2443    2.7052245    17.710645 
  220420    116.72725   -215.11547     207.7592    5554.1481    2.7057584     17.70948 
  220430    116.08592   -214.68324    225.32534    5554.3675    2.7056515    17.709714 
  220440    114.99642   -214.45785    231.40664    5555.9983    2.7048573    17.711447 
  220450     113.4499   -214.20649    231.06883    5559.0787    2.7033585    17.714719 
  220460    111.41778   -213.91606    224.07784    5563.6026    2.7011603    17.719523 
  220470    108.88843   -213.62818    209.02315    5569.5271     2.698287    17.725811 
  220480    105.88791   -213.38428    184.81947    5576.7629     2.694786    17.733484 
  220490    102.53251   -213.24714    150.47889    5585.1581    2.6907354    17.742378 
  220500    99.057302   -212.92984    114.17528    5594.5023    2.6862412    17.752267 
  220510    95.783649   -212.70366     71.16153    5604.5623    2.6814195    17.762901 
  220520    93.007461   -212.80843    17.774973    5615.0611    2.6764059    17.773986 
  220530    90.899858   -212.71966   -31.346493    5625.6736     2.671357    17.785176 
  220540    89.480908   -212.79444   -83.076707    5636.0789    2.6664252    17.796135 
  220550     88.66943   -212.92158   -133.31954    5645.9474    2.6617646    17.806516 
  220560    88.337318   -212.98818   -178.17172    5654.9555    2.6575245    17.815981 
  220570    88.376179   -213.10953   -219.30313    5662.8071    2.6538398    17.824222 
  220580    88.691654   -213.35208   -257.36836     5669.235    2.6508308    17.830964 
  220590    89.216263   -213.51581   -286.79076    5673.9966    2.6486062    17.835955 
  220600    89.893572   -213.79311   -311.49515    5676.8971     2.647253    17.838993 
  220610    90.686895   -214.01048   -326.83672    5677.7847    2.6468391    17.839923 
  220620    91.569256   -214.26523   -334.73693    5676.5643    2.6474082    17.838645 
  220630    92.518154   -214.45728   -332.56121    5673.1961      2.64898    17.835116 
  220640    93.507672   -214.65584   -321.83315    5667.7021    2.6515478    17.829357 
  220650    94.513673   -214.88034   -303.02017    5660.1648    2.6550787     17.82145 
  220660    95.503013   -214.97446   -272.57493    5650.7259    2.6595137    17.811538 
  220670    96.440659   -215.19815   -237.08063    5639.5992    2.6647608    17.799839 
  220680    97.298124   -215.44529   -194.54807     5627.034    2.6707112     17.78661 
  220690    98.052693   -215.43864   -139.10706    5613.3295    2.6772315    17.772159 
  220700    98.689032   -215.59217   -81.763294    5598.8413    2.6841595    17.756855 
  220710    99.202761   -215.43835   -12.654352    5583.9491     2.691318    17.741098 
  220720    99.602328   -215.25139    59.838847    5569.0897     2.698499    17.725347 
  220730    99.913579   -215.16597    130.34005    5554.7144    2.7054825    17.710082 
  220740    100.17552   -214.92893    202.65753    5541.2617    2.7120507    17.695774 
  220750    100.43802   -214.70894    270.21527    5529.1628    2.7179852    17.682885 
  220760    100.75138   -214.43086    332.32348    5518.8207    2.7230786    17.671853 
  220770    101.17264   -214.36699    380.05628    5510.5838    2.7271489    17.663057 
  220780    101.73216   -214.21573    418.85859    5504.7259    2.7300511    17.656796 
  220790    102.44299   -214.03822    445.79192    5501.4623    2.7316706    17.653306 
  220800    103.28892   -213.98398    456.30217    5500.9402    2.7319299    17.652747 
  220810    104.22649   -214.06982    449.78134    5503.2094    2.7308034    17.655174 
  220820     105.2089   -214.01505     433.6015    5508.2266     2.728316    17.660538 
  220830    106.17083   -213.99818    404.34345    5515.8865    2.7245272    17.668721 
  220840    107.05535   -213.90474    366.14909    5526.0221      2.71953    17.679536 
  220850    107.80139   -213.86246    317.50086    5538.4054    2.7134494    17.692733 
  220860    108.35977   -213.78195    262.38488    5552.7427    2.7064432    17.707987 
  220870    108.69568   -213.87243    197.60121    5568.7005    2.6986875    17.724934 
  220880    108.78793   -213.80736    132.98948    5585.8903    2.6903827    17.743153 
  220890    108.62008   -213.68234    68.038796     5603.906    2.6817335    17.762208 
  220900     108.1827    -213.4748     4.956701     5622.335    2.6729433    17.781657 
  220910    107.44905   -213.23419   -55.996134     5640.768    2.6642086    17.801069 
  220920    106.38645   -212.86567   -111.30605    5658.8093    2.6557146    17.820027 
  220930    104.95412    -212.5699   -164.71837     5676.093     2.647628    17.838151 
  220940     103.0972   -212.39621    -216.4892    5692.2615    2.6401076    17.855072 
  220950     100.7787    -212.1246   -260.59305     5706.975    2.6333009    17.870443 
  220960    98.023528   -211.80827   -297.52508     5719.936    2.6273341    17.883961 
  220970    94.932893   -211.52278   -328.28823    5730.8904     2.622312    17.895371 
  220980     91.69341   -211.36945   -354.45565    5739.6321    2.6183182    17.904465 
  220990    88.530259   -211.00874   -367.33764    5745.9959    2.6154183     17.91108 
  221000    85.650162    -210.7448   -373.66495    5749.8926    2.6136458    17.915128 
  221010      83.1852   -210.58637   -373.66806     5751.294     2.613009    17.916583 
  221020    81.211513   -210.35161   -363.47686    5750.2193    2.6134973    17.915467 
  221030    79.767642   -210.20485     -347.678    5746.7501     2.615075    17.911864 
  221040    78.896296   -210.31766   -331.17128    5741.0038    2.6176925    17.905891 
  221050    78.621527   -210.33947   -306.69686    5733.1226     2.621291    17.897694 
  221060    78.967423   -210.58076   -282.44973    5723.2906    2.6257941    17.887457 
  221070    79.941284   -210.87792   -255.26136    5711.6979    2.6311235    17.875371 
  221080    81.504009   -211.27247   -226.57143    5698.5514    2.6371935    17.861646 
  221090    83.578117   -211.67251   -194.42693    5684.0663     2.643914      17.8465 
  221100    86.057841   -212.47149   -168.23162    5668.4717    2.6511877    17.830164 
  221110    88.808191   -213.15092   -135.67376    5651.9755    2.6589257    17.812851 
  221120    91.675259   -213.87649   -100.79327    5634.8024    2.6670292    17.794791 
  221130     94.51645    -214.3538   -56.876215    5617.2007    2.6753865    17.776243 
  221140    97.205897   -214.90796   -12.364382     5599.458    2.6838638    17.757507 
  221150    99.655959    -215.5562    31.427856    5581.8612    2.6923247    17.738886 
  221160      101.808   -215.87651    83.594594    5564.6933    2.7006309    17.720681 
  221170    103.63153   -216.23678    133.87668    5548.2696    2.7086252     17.70323 
  221180    105.14003     -216.698    179.32289    5532.8911    2.7161537    17.686859 
  221182    105.40604    -216.7268    189.54315    5529.9644    2.7175912     17.68374 
Loop time of 4.73842 on 1 procs for 100000 steps with 108 atoms

Performance: 1823.394 ns/day, 0.013 hours/ns, 21104.094 timesteps/s
98.5% CPU use with 1 MPI tasks x no OpenMP threads

MPI task timing breakdown:
Section |  min time  |  avg time  |  max time  |%varavg| %total
---------------------------------------------------------------
Pair    | 3.7046     | 3.7046     | 3.7046     |   0.0 | 78.18
Neigh   | 0.10146    | 0.10146    | 0.10146    |   0.0 |  2.14
Comm    | 0.26183    | 0.26183    | 0.26183    |   0.0 |  5.53
Output  | 0.04744    | 0.04744    | 0.04744    |   0.0 |  1.00
Modify  | 0.53795    | 0.53795    | 0.53795    |   0.0 | 11.35
Other   |            | 0.08515    |            |       |  1.80

Nlocal:    108 ave 108 max 108 min
Histogram: 1 0 0 0 0 0 0 0 0 0
Nghost:    558 ave 558 max 558 min
Histogram: 1 0 0 0 0 0 0 0 0 0
Neighs:    2308 ave 2308 max 2308 min
Histogram: 1 0 0 0 0 0 0 0 0 0

Total # of neighbors = 2308
Ave neighs/atom = 21.3704
Neighbor list builds = 813
Dangerous builds = 0
Total wall time: 0:00:11
