LAMMPS (7 Aug 2019)
Lattice spacing in x,y,z = 5 5 5
Created orthogonal box = (0 0 0) to (35 35 35)
  1 by 1 by 1 MPI processor grid
Created 1372 atoms
  create_atoms CPU = 0.000369072 secs
WARNING: Using 'neigh_modify every 1 delay 0 check yes' setting during minimization (../min.cpp:168)
Neighbor list info ...
  update every 1 steps, delay 0 steps, check yes
  max neighbors/atom: 2000, page size: 100000
  master list distance cutoff = 8
  ghost atom cutoff = 8
  binsize = 4, bins = 9 9 9
  1 neighbor lists, perpetual/occasional/extra = 1 0 0
  (1) pair lj/cut, perpetual
      attributes: half, newton on
      pair build: half/bin/atomonly/newton
      stencil: half/bin/3d/newton
      bin: standard
Setting up cg style minimization ...
  Unit style    : real
  Current step  : 0
WARNING: Energy due to 1 extra global DOFs will be included in minimizer energies
Per MPI rank memory allocation (min/avg/max) = 5.635 | 5.635 | 5.635 Mbytes
Step Temp PotEng Press Volume Density Lx 
       0            0   -336.04855    42953.781        42875    4.4527949           35 
      10            0   -415.85062    42047.338    43003.754    4.4394632       35.035 
      20            0   -494.12266    41157.658    43132.765    4.4261846        35.07 
      30            0   -570.88938    40284.436    43262.034     4.412959       35.105 
      40            0    -646.1751    39427.372    43391.561     4.399786        35.14 
      50            0   -720.00378    38586.169    43521.346    4.3866654       35.175 
      60            0   -792.39895    37760.541     43651.39    4.3735969        35.21 
      70            0    -863.3838    36950.202    43781.692    4.3605802       35.245 
      80            0   -932.98115    36154.874    43912.254    4.3476152        35.28 
      90            0   -1001.2134    35374.285    44043.075    4.3347015       35.315 
     100            0   -1068.1027    34608.166    44174.155    4.3218389        35.35 
     110            0   -1133.6708    33856.254    44305.496    4.3090271       35.385 
     120            0    -1197.939     33118.29    44437.096    4.2962659        35.42 
     130            0   -1260.9285    32394.021    44568.957    4.2835551       35.455 
     140            0   -1322.6598    31683.198    44701.078    4.2708943        35.49 
     150            0   -1383.1535    30985.577     44833.46    4.2582834       35.525 
     160            0   -1442.4296    30300.919    44966.104    4.2457221        35.56 
     170            0   -1500.5077    29628.987    45099.008    4.2332102       35.595 
     180            0   -1557.4074    28969.551    45232.175    4.2207474        35.63 
     190            0   -1613.1478    28322.385    45365.603    4.2083334       35.665 
     200            0   -1667.7477    27687.265    45499.293    4.1959681         35.7 
     210            0   -1721.2255    27063.974    45633.246    4.1836512       35.735 
     220            0   -1773.5997    26452.298    45767.461    4.1713824        35.77 
     230            0    -1824.888    25852.025    45901.939    4.1591616       35.805 
     240            0   -1875.1081    25262.949    46036.681    4.1469884        35.84 
     250            0   -1924.2774    24684.867    46171.686    4.1348627       35.875 
     260            0   -1972.4131    24117.582    46306.954    4.1227843        35.91 
     270            0   -2019.5318    23560.896    46442.487    4.1107528       35.945 
     280            0   -2065.6503    23014.619    46578.283    4.0987681        35.98 
     290            0   -2110.7848    22478.562    46714.344    4.0868299       36.015 
     300            0   -2154.9513     21952.54     46850.67    4.0749381        36.05 
     310            0   -2198.1657    21436.373    46987.261    4.0630924       36.085 
     320            0   -2240.4434    20929.881    47124.117    4.0512925        36.12 
     330            0   -2281.7998    20432.891    47261.238    4.0395383       36.155 
     340            0     -2322.25     19945.23    47398.626    4.0278295        36.19 
     350            0   -2361.8087     19466.73    47536.279    4.0161659       36.225 
     360            0   -2400.4905    18997.225    47674.198    4.0045473        36.26 
     370            0   -2438.3098    18536.554    47812.384    3.9929734       36.295 
     380            0   -2475.2808    18084.557    47950.837    3.9814442        36.33 
     390            0   -2511.4172    17641.077    48089.557    3.9699592       36.365 
     400            0   -2546.7329    17205.961    48228.544    3.9585184         36.4 
     410            0   -2581.2412    16779.058    48367.799    3.9471216       36.435 
     420            0   -2614.9554    16360.219    48507.321    3.9357684        36.47 
     430            0   -2647.8887      15949.3    48647.111    3.9244587       36.505 
     440            0   -2680.0538    15546.158     48787.17    3.9131923        36.54 
     450            0   -2711.4633    15150.652    48927.498     3.901969       36.575 
     460            0   -2742.1298    14762.645    49068.094    3.8907886        36.61 
     470            0   -2772.0655    14382.001    49208.959    3.8796509       36.645 
     480            0   -2801.2823    14008.589    49350.094    3.8685556        36.68 
     490            0   -2829.7923    13642.278    49491.498    3.8575026       36.715 
     500            0    -2857.607    13282.939    49633.172    3.8464916        36.75 
     510            0    -2884.738    12930.448    49775.116    3.8355226       36.785 
     520            0   -2911.1966    12584.681    49917.331    3.8245952        36.82 
     530            0    -2936.994    12245.517    50059.816    3.8137092       36.855 
     540            0    -2962.141    11912.837    50202.572    3.8028646        36.89 
     550            0   -2986.6485    11586.525    50345.599     3.792061       36.925 
     560            0   -3010.5271    11266.465    50488.898    3.7812983        36.96 
     570            0   -3033.7873    10952.546    50632.468    3.7705763       36.995 
     580            0   -3056.4394    10644.656     50776.31    3.7598948        37.03 
     590            0   -3078.4934    10342.688    50920.424    3.7492535       37.065 
     600            0   -3099.9594    10046.534    51064.811    3.7386525         37.1 
     610            0   -3120.8472    9756.0905     51209.47    3.7280913       37.135 
     620            0   -3141.1665    9471.2543    51354.403    3.7175699        37.17 
     630            0   -3160.9267    9191.9245    51499.608     3.707088       37.205 
     640            0   -3180.1372    8918.0022    51645.087    3.6966455        37.24 
     650            0   -3198.8073    8649.3899     51790.84    3.6862422       37.275 
     660            0    -3216.946    8385.9921    51936.867    3.6758779        37.31 
     670            0   -3234.5623    8127.7151    52083.168    3.6655524       37.345 
     680            0   -3251.6648    7874.4666    52229.743    3.6552655        37.38 
     690            0   -3268.2624    7626.1562    52376.593    3.6450171       37.415 
     700            0   -3284.3635    7382.6951    52523.719     3.634807        37.45 
     710            0   -3299.9765     7143.996    52671.119     3.624635       37.485 
     720            0   -3315.1096    6909.9731    52818.795    3.6145009        37.52 
     730            0    -3329.771    6680.5424    52966.747    3.6044045       37.555 
     740            0   -3343.9686    6455.6211    53114.974    3.5943457        37.59 
     750            0   -3357.7105    6235.1282    53263.479    3.5843243       37.625 
     760            0   -3371.0042    6018.9839    53412.259    3.5743401        37.66 
     770            0   -3383.8574    5807.1099    53561.316     3.564393       37.695 
     780            0   -3396.2777    5599.4293    53710.651    3.5544827        37.73 
     790            0   -3408.2724    5395.8667    53860.263    3.5446092       37.765 
     800            0   -3419.8488    5196.3478    54010.152    3.5347722         37.8 
     810            0    -3431.014    5000.7998    54160.319    3.5249715       37.835 
     820            0   -3441.7752    4809.1513    54310.764     3.515207        37.87 
     830            0   -3452.1393    4621.3319    54461.488    3.5054786       37.905 
     840            0    -3462.113    4437.2727     54612.49     3.495786        37.94 
     850            0   -3471.7031    4256.9058    54763.771    3.4861292       37.975 
     860            0   -3480.9163    4080.1648    54915.331    3.4765079        38.01 
     870            0   -3489.7591    3906.9842    55067.171    3.4669219       38.045 
     880            0   -3498.2378    3737.2998     55219.29    3.4573712        38.08 
     890            0   -3506.3589    3571.0487    55371.689    3.4478555       38.115 
     900            0   -3514.1284    3408.1688    55524.368    3.4383747        38.15 
     910            0   -3521.5525    3248.5993    55677.328    3.4289286       38.185 
     920            0   -3528.6374    3092.2805    55830.568    3.4195171        38.22 
     930            0   -3535.3888    2939.1536    55984.089      3.41014       38.255 
     940            0   -3541.8126    2789.1611    56137.892    3.4007971        38.29 
     950            0   -3547.9146    2642.2463    56291.976    3.3914884       38.325 
     960            0   -3553.7004    2498.3536    56446.341    3.3822136        38.36 
     970            0   -3559.1756    2357.4284    56600.988    3.3729726       38.395 
     980            0   -3564.3456     2219.417    56755.918    3.3637652        38.43 
     990            0    -3569.216    2084.2667     56911.13    3.3545913       38.465 
    1000            0   -3573.7919    1951.9257    57066.625    3.3454507         38.5 
    1010            0   -3578.0787    1822.3433    57222.403    3.3363433       38.535 
    1020            0   -3582.0814    1695.4695    57378.464     3.327269        38.57 
    1030            0   -3585.8051    1571.2551    57534.808    3.3182275       38.605 
    1040            0   -3589.2548    1449.6521    57691.437    3.3092187        38.64 
    1050            0   -3592.4355     1330.613    57848.349    3.3002425       38.675 
    1060            0   -3595.3519    1214.0915    58005.545    3.2912988        38.71 
    1070            0   -3598.0088    1100.0417    58163.026    3.2823873       38.745 
    1080            0   -3600.4109    988.41895    58320.792     3.273508        38.78 
    1090            0   -3602.5629    879.17906    58478.843    3.2646607       38.815 
    1100            0   -3604.4691    772.27878    58637.179    3.2558453        38.85 
    1110            0   -3606.1342    667.67558    58795.801    3.2470615       38.885 
    1120            0   -3607.5625    565.32769    58954.708    3.2383093        38.92 
    1130            0   -3608.7583    465.19409    59113.902    3.2295886       38.955 
    1140            0   -3609.7259    367.23447    59273.382    3.2208991        38.99 
    1150            0   -3610.4695    271.40923    59433.148    3.2122408       39.025 
    1160            0   -3610.9932     177.6795    59593.201    3.2036134        39.06 
    1170            0    -3611.301    86.007055    59753.542     3.195017       39.095 
    1180            0   -3611.3973 -0.0020174359    59907.565    3.1868025    39.128562 
    1182            0   -3611.3973 -7.5942492e-11    59907.562    3.1868027    39.128561 
Loop time of 1.14609 on 1 procs for 1182 steps with 1372 atoms

98.6% CPU use with 1 MPI tasks x no OpenMP threads

Minimization stats:
  Stopping criterion = force tolerance
  Energy initial, next-to-last, final = 
        -336.048545832     -3611.39726694     -3611.39726694
  Force two-norm initial, final = 80575.4 2.40217e-10
  Force max component initial, final = 80575.4 1.78048e-10
  Final line search alpha, max atom move = 1 1.78048e-10
  Iterations, force evaluations = 1182 1185

MPI task timing breakdown:
Section |  min time  |  avg time  |  max time  |%varavg| %total
---------------------------------------------------------------
Pair    | 0.97924    | 0.97924    | 0.97924    |   0.0 | 85.44
Neigh   | 0.018872   | 0.018872   | 0.018872   |   0.0 |  1.65
Comm    | 0.018551   | 0.018551   | 0.018551   |   0.0 |  1.62
Output  | 0.0017617  | 0.0017617  | 0.0017617  |   0.0 |  0.15
Modify  | 0          | 0          | 0          |   0.0 |  0.00
Other   |            | 0.1277     |            |       | 11.14

Nlocal:    1372 ave 1372 max 1372 min
Histogram: 1 0 0 0 0 0 0 0 0 0
Nghost:    2058 ave 2058 max 2058 min
Histogram: 1 0 0 0 0 0 0 0 0 0
Neighs:    37044 ave 37044 max 37044 min
Histogram: 1 0 0 0 0 0 0 0 0 0

Total # of neighbors = 37044
Ave neighs/atom = 27
Neighbor list builds = 14
Dangerous builds = 0
Setting up Verlet run ...
  Unit style    : real
  Current step  : 1182
  Time step     : 1
Per MPI rank memory allocation (min/avg/max) = 4.512 | 4.512 | 4.512 Mbytes
Step Temp PotEng Press Volume Density Lx 
    1182            0   -3611.3973 -7.5942492e-11    59907.562    3.1868027    39.128561 
    1190 1.0191214e-24   -3611.3973 -1.9575103e-11    59907.562    3.1868027    39.128561 
    1200 5.1968902e-24   -3611.3973 7.0030185e-11    59907.562    3.1868027    39.128561 
    1210 1.272204e-23   -3611.3973 7.5941592e-11    59907.562    3.1868027    39.128561 
    1220 2.3623202e-23   -3611.3973 -7.9231391e-11    59907.562    3.1868027    39.128561 
    1230 3.8169003e-23   -3611.3973 -7.3341205e-11    59907.562    3.1868027    39.128561 
    1240 5.666916e-23   -3611.3973 7.2341799e-11    59907.562    3.1868027    39.128561 
    1250 7.9187471e-23   -3611.3973 8.5324798e-11    59907.562    3.1868027    39.128561 
    1260 1.0558439e-22   -3611.3973 -4.8480084e-11    59907.562    3.1868027    39.128561 
    1270 1.3572633e-22   -3611.3973 -9.1407785e-11    59907.562    3.1868027    39.128561 
    1280 1.6853038e-22   -3611.3973 3.6574207e-11    59907.562    3.1868027    39.128561 
    1290 2.0263713e-22   -3611.3973 9.2897862e-11    59907.562    3.1868027    39.128561 
    1300 2.3885673e-22   -3611.3973 4.0838666e-12    59907.562    3.1868027    39.128561 
    1310 2.7597638e-22   -3611.3973 -9.2868011e-11    59907.562    3.1868027    39.128561 
    1320 3.1397422e-22   -3611.3973 -1.3382548e-11    59907.562    3.1868027    39.128561 
    1330 3.517324e-22   -3611.3973 8.7371041e-11    59907.562    3.1868027    39.128561 
    1340 3.8773183e-22   -3611.3973 4.0903303e-11    59907.562    3.1868027    39.128561 
    1350 4.2102273e-22   -3611.3973 -8.542617e-11    59907.562    3.1868027    39.128561 
    1360 4.5084533e-22   -3611.3973 -5.1950592e-11    59907.562    3.1868027    39.128561 
    1370 4.7589779e-22   -3611.3973 9.3149382e-11    59907.562    3.1868027    39.128561 
    1380 4.9593228e-22   -3611.3973 8.9860779e-11    59907.562    3.1868027    39.128561 
    1390 5.1184333e-22   -3611.3973 -9.3443979e-11    59907.562    3.1868027    39.128561 
    1400 5.2084931e-22   -3611.3973 -9.5267537e-11    59907.562    3.1868027    39.128561 
    1410 5.2232047e-22   -3611.3973 6.7609098e-11    59907.562    3.1868027    39.128561 
    1420 5.1606658e-22   -3611.3973 9.3375624e-11    59907.562    3.1868027    39.128561 
    1430 5.0513137e-22   -3611.3973 -4.1457796e-11    59907.562    3.1868027    39.128561 
    1440 4.8745413e-22   -3611.3973 -8.8781465e-11    59907.562    3.1868027    39.128561 
    1450 4.628867e-22   -3611.3973 1.8840305e-11    59907.562    3.1868027    39.128561 
    1460 4.3180092e-22   -3611.3973 9.2925882e-11    59907.562    3.1868027    39.128561 
    1470 3.9682686e-22   -3611.3973 -7.3682544e-12    59907.562    3.1868027    39.128561 
    1480 3.5819735e-22   -3611.3973 -8.5820213e-11    59907.562    3.1868027    39.128561 
    1490 3.1735548e-22   -3611.3973 -1.2438863e-11    59907.562    3.1868027    39.128561 
    1500 2.7556358e-22   -3611.3973 8.9040831e-11    59907.562    3.1868027    39.128561 
    1510 2.3549605e-22   -3611.3973 5.0992378e-11    59907.562    3.1868027    39.128561 
    1520 1.9836788e-22   -3611.3973 -8.7503748e-11    59907.562    3.1868027    39.128561 
    1530 1.6574857e-22   -3611.3973 -7.3108165e-11    59907.562    3.1868027    39.128561 
    1540 1.3923019e-22   -3611.3973 9.3094592e-11    59907.562    3.1868027    39.128561 
    1550 1.1962523e-22   -3611.3973 9.0592369e-11    59907.562    3.1868027    39.128561 
    1560 1.080741e-22   -3611.3973 -7.1895943e-11    59907.562    3.1868027    39.128561 
    1570 1.0489659e-22   -3611.3973 -9.7414518e-11    59907.562    3.1868027    39.128561 
    1580 1.1035765e-22   -3611.3973 2.980544e-11    59907.562    3.1868027    39.128561 
    1590 1.2502494e-22   -3611.3973 1.0747941e-10    59907.562    3.1868027    39.128561 
    1600 1.4938818e-22   -3611.3973 -2.2729379e-11    59907.562    3.1868027    39.128561 
    1610 1.8370893e-22   -3611.3973 -1.0895445e-10    59907.562    3.1868027    39.128561 
    1620 2.2738148e-22   -3611.3973 -8.8755394e-12    59907.562    3.1868027    39.128561 
    1630 2.8044643e-22   -3611.3973 9.9708277e-11    59907.562    3.1868027    39.128561 
    1640 3.4257775e-22   -3611.3973 3.243427e-11    59907.562    3.1868027    39.128561 
    1650 4.1309495e-22   -3611.3973 -1.0016619e-10    59907.562    3.1868027    39.128561 
    1660 4.9100797e-22   -3611.3973 -8.133128e-11    59907.562    3.1868027    39.128561 
    1670 5.7507316e-22   -3611.3973 1.0293124e-10    59907.562    3.1868027    39.128561 
    1680 6.6519061e-22   -3611.3973 9.2396877e-11    59907.562    3.1868027    39.128561 
    1690 7.5904979e-22   -3611.3973 -9.0565059e-11    59907.562    3.1868027    39.128561 
    1700 8.549736e-22   -3611.3973 -9.1011572e-11    59907.562    3.1868027    39.128561 
    1710 9.5239522e-22   -3611.3973 5.4253564e-11    59907.562    3.1868027    39.128561 
    1720 1.0446301e-21   -3611.3973 8.2729494e-11    59907.562    3.1868027    39.128561 
    1730 1.1313245e-21   -3611.3973 -1.6934593e-11    59907.562    3.1868027    39.128561 
    1740 1.2096377e-21   -3611.3973 -9.6695116e-11    59907.562    3.1868027    39.128561 
    1750 1.2833542e-21   -3611.3973 1.557161e-12    59907.562    3.1868027    39.128561 
    1760 1.3470417e-21   -3611.3973 8.2637854e-11    59907.562    3.1868027    39.128561 
    1770 1.3983752e-21   -3611.3973 3.4889539e-11    59907.562    3.1868027    39.128561 
    1780 1.4374039e-21   -3611.3973 -9.2608327e-11    59907.562    3.1868027    39.128561 
    1790 1.4681664e-21   -3611.3973 -5.9957196e-11    59907.562    3.1868027    39.128561 
    1800 1.4874742e-21   -3611.3973 9.5133656e-11    59907.562    3.1868027    39.128561 
    1810 1.4924378e-21   -3611.3973 6.4873686e-11    59907.562    3.1868027    39.128561 
    1820 1.4834552e-21   -3611.3973 -7.9240096e-11    59907.562    3.1868027    39.128561 
    1830 1.460557e-21   -3611.3973 -7.2207356e-11    59907.562    3.1868027    39.128561 
    1840 1.4263885e-21   -3611.3973 5.3507467e-11    59907.562    3.1868027    39.128561 
    1850 1.3786551e-21   -3611.3973 7.9231455e-11    59907.562    3.1868027    39.128561 
    1860 1.3207157e-21   -3611.3973 -1.3329283e-11    59907.562    3.1868027    39.128561 
    1870 1.2529142e-21   -3611.3973 -9.5531309e-11    59907.562    3.1868027    39.128561 
    1880 1.1803106e-21   -3611.3973 -1.7131334e-11    59907.562    3.1868027    39.128561 
    1890 1.1023433e-21   -3611.3973 8.8918576e-11    59907.562    3.1868027    39.128561 
    1900 1.0229124e-21   -3611.3973 5.2480464e-11    59907.562    3.1868027    39.128561 
    1910 9.439927e-22   -3611.3973 -8.3944649e-11    59907.562    3.1868027    39.128561 
    1920 8.7136764e-22   -3611.3973 -9.3066869e-11    59907.562    3.1868027    39.128561 
    1930 8.0822155e-22   -3611.3973 9.4477399e-11    59907.562    3.1868027    39.128561 
    1940 7.5779279e-22   -3611.3973 9.2397576e-11    59907.562    3.1868027    39.128561 
    1950 7.2387969e-22   -3611.3973 -5.2433098e-11    59907.562    3.1868027    39.128561 
    1960 7.0694533e-22   -3611.3973 -8.7773078e-11    59907.562    3.1868027    39.128561 
    1970 7.0939626e-22   -3611.3973 2.4795022e-11    59907.562    3.1868027    39.128561 
    1980 7.3051425e-22   -3611.3973 1.0499079e-10    59907.562    3.1868027    39.128561 
    1990 7.7111761e-22   -3611.3973 5.4281912e-12    59907.562    3.1868027    39.128561 
    2000 8.323086e-22   -3611.3973 -1.0539308e-10    59907.562    3.1868027    39.128561 
    2010 9.1381618e-22   -3611.3973 -1.3988706e-11    59907.562    3.1868027    39.128561 
    2020 1.0158608e-21   -3611.3973 1.0077026e-10    59907.562    3.1868027    39.128561 
    2030 1.1394928e-21   -3611.3973 5.5479965e-11    59907.562    3.1868027    39.128561 
    2040 1.2835085e-21   -3611.3973 -1.085925e-10    59907.562    3.1868027    39.128561 
    2050 1.4462623e-21   -3611.3973 -8.5003103e-11    59907.562    3.1868027    39.128561 
    2060 1.6247258e-21   -3611.3973 8.9270282e-11    59907.562    3.1868027    39.128561 
    2070 1.8183919e-21   -3611.3973  1.26069e-10    59907.562    3.1868027    39.128561 
    2080 2.0243957e-21   -3611.3973 -5.9894401e-11    59907.562    3.1868027    39.128561 
    2090 2.236126e-21   -3611.3973 -1.2638602e-10    59907.562    3.1868027    39.128561 
    2100 2.4485763e-21   -3611.3973 1.7385109e-11    59907.562    3.1868027    39.128561 
    2110 2.6553843e-21   -3611.3973 1.2160247e-10    59907.562    3.1868027    39.128561 
    2120 2.852589e-21   -3611.3973 2.2328814e-11    59907.562    3.1868027    39.128561 
    2130 3.0379159e-21   -3611.3973 -1.3295865e-10    59907.562    3.1868027    39.128561 
    2140 3.2041128e-21   -3611.3973 -5.6167249e-11    59907.562    3.1868027    39.128561 
    2150 3.3441688e-21   -3611.3973 1.2248766e-10    59907.562    3.1868027    39.128561 
    2160 3.458072e-21   -3611.3973 1.0245684e-10    59907.562    3.1868027    39.128561 
    2170 3.5432448e-21   -3611.3973 -7.5180203e-11    59907.562    3.1868027    39.128561 
    2180 3.595901e-21   -3611.3973 -1.242176e-10    59907.562    3.1868027    39.128561 
    2190 3.6151781e-21   -3611.3973 1.4177325e-11    59907.562    3.1868027    39.128561 
    2200 3.6020712e-21   -3611.3973 1.4479389e-10    59907.562    3.1868027    39.128561 
    2210 3.5569561e-21   -3611.3973 3.7872616e-11    59907.562    3.1868027    39.128561 
    2220 3.480318e-21   -3611.3973 -1.45186e-10    59907.562    3.1868027    39.128561 
    2230 3.3751614e-21   -3611.3973 -8.7297138e-11    59907.562    3.1868027    39.128561 
    2240 3.2458209e-21   -3611.3973 9.0947834e-11    59907.562    3.1868027    39.128561 
    2250 3.0949916e-21   -3611.3973 1.4114567e-10    59907.562    3.1868027    39.128561 
    2260 2.9296218e-21   -3611.3973 -4.1911234e-11    59907.562    3.1868027    39.128561 
    2270 2.7561813e-21   -3611.3973 -1.4999938e-10    59907.562    3.1868027    39.128561 
    2280 2.5832773e-21   -3611.3973 -2.1442968e-11    59907.562    3.1868027    39.128561 
    2290 2.4177984e-21   -3611.3973 1.6166819e-10    59907.562    3.1868027    39.128561 
    2300 2.271446e-21   -3611.3973 8.6509625e-11    59907.562    3.1868027    39.128561 
    2310 2.1520239e-21   -3611.3973 -9.3397809e-11    59907.562    3.1868027    39.128561 
    2320 2.0681285e-21   -3611.3973 -1.6053577e-10    59907.562    3.1868027    39.128561 
    2330 2.0287212e-21   -3611.3973 1.6754203e-11    59907.562    3.1868027    39.128561 
    2340 2.0405405e-21   -3611.3973 1.6333304e-10    59907.562    3.1868027    39.128561 
    2350 2.1101644e-21   -3611.3973 5.032083e-11    59907.562    3.1868027    39.128561 
    2360 2.2433422e-21   -3611.3973 -1.2866752e-10    59907.562    3.1868027    39.128561 
    2370 2.444301e-21   -3611.3973 -1.3028979e-10    59907.562    3.1868027    39.128561 
    2380  2.71545e-21   -3611.3973 4.9823001e-11    59907.562    3.1868027    39.128561 
    2390 3.058081e-21   -3611.3973 1.6072239e-10    59907.562    3.1868027    39.128561 
    2400 3.4716188e-21   -3611.3973 3.0984761e-11    59907.562    3.1868027    39.128561 
    2410 3.9512264e-21   -3611.3973 -1.4599274e-10    59907.562    3.1868027    39.128561 
    2420 4.4922358e-21   -3611.3973 -1.2547525e-10    59907.562    3.1868027    39.128561 
    2430 5.0891198e-21   -3611.3973 5.3553922e-11    59907.562    3.1868027    39.128561 
    2440 5.7311267e-21   -3611.3973 1.7690482e-10    59907.562    3.1868027    39.128561 
    2450 6.4075067e-21   -3611.3973 3.2383282e-11    59907.562    3.1868027    39.128561 
    2460 7.1088001e-21   -3611.3973 -1.4328679e-10    59907.562    3.1868027    39.128561 
    2470 7.8197191e-21   -3611.3973 -1.2642424e-10    59907.562    3.1868027    39.128561 
    2480 8.5278092e-21   -3611.3973 5.2033655e-11    59907.562    3.1868027    39.128561 
    2490 9.2174919e-21   -3611.3973  1.77686e-10    59907.562    3.1868027    39.128561 
    2500 9.8710043e-21   -3611.3973 5.2189827e-11    59907.562    3.1868027    39.128561 
    2510 1.0470209e-20   -3611.3973 -1.2941441e-10    59907.562    3.1868027    39.128561 
    2520 1.0999383e-20   -3611.3973 -1.6131232e-10    59907.562    3.1868027    39.128561 
    2530 1.1449481e-20   -3611.3973 1.7442768e-11    59907.562    3.1868027    39.128561 
    2540 1.1808976e-20   -3611.3973 1.7712423e-10    59907.562    3.1868027    39.128561 
    2550 1.2065431e-20   -3611.3973 8.555858e-11    59907.562    3.1868027    39.128561 
    2560 1.2217116e-20   -3611.3973 -9.0150791e-11    59907.562    3.1868027    39.128561 
    2570 1.2261114e-20   -3611.3973 -1.8126983e-10    59907.562    3.1868027    39.128561 
    2580 1.2198996e-20   -3611.3973 -2.0605516e-11    59907.562    3.1868027    39.128561 
    2590 1.2033996e-20   -3611.3973 1.6065697e-10    59907.562    3.1868027    39.128561 
    2600 1.1778977e-20   -3611.3973 1.2448691e-10    59907.562    3.1868027    39.128561 
    2610 1.1445301e-20   -3611.3973 -5.4257726e-11    59907.562    3.1868027    39.128561 
    2620 1.1049961e-20   -3611.3973 -1.8054137e-10    59907.562    3.1868027    39.128561 
    2630 1.0615953e-20   -3611.3973 -5.4557745e-11    59907.562    3.1868027    39.128561 
    2640 1.0160337e-20   -3611.3973 1.2420312e-10    59907.562    3.1868027    39.128561 
    2650 9.7076865e-21   -3611.3973 1.7926738e-10    59907.562    3.1868027    39.128561 
    2660 9.286722e-21   -3611.3973 -2.7541447e-12    59907.562    3.1868027    39.128561 
    2670 8.925164e-21   -3611.3973 -1.8053624e-10    59907.562    3.1868027    39.128561 
    2680 8.6578807e-21   -3611.3973 -1.2760754e-10    59907.562    3.1868027    39.128561 
    2690 8.5129413e-21   -3611.3973 5.2959507e-11    59907.562    3.1868027    39.128561 
    2700 8.514271e-21   -3611.3973 1.9608888e-10    59907.562    3.1868027    39.128561 
    2710 8.6854739e-21   -3611.3973 7.2186156e-11    59907.562    3.1868027    39.128561 
    2720 9.0466956e-21   -3611.3973 -1.0880033e-10    59907.562    3.1868027    39.128561 
    2730 9.6155353e-21   -3611.3973 -1.9838711e-10    59907.562    3.1868027    39.128561 
    2740 1.0402562e-20   -3611.3973 -1.8754181e-11    59907.562    3.1868027    39.128561 
    2750 1.1413949e-20   -3611.3973 1.6215201e-10    59907.562    3.1868027    39.128561 
    2760 1.2653553e-20   -3611.3973 1.6184536e-10    59907.562    3.1868027    39.128561 
    2770 1.4118155e-20   -3611.3973 -1.7770478e-11    59907.562    3.1868027    39.128561 
    2780 1.5791497e-20   -3611.3973 -2.0036951e-10    59907.562    3.1868027    39.128561 
    2790 1.7658504e-20   -3611.3973 -1.2740219e-10    59907.562    3.1868027    39.128561 
    2800 1.9699738e-20   -3611.3973 5.2673668e-11    59907.562    3.1868027    39.128561 
    2810 2.1885131e-20   -3611.3973 2.1448395e-10    59907.562    3.1868027    39.128561 
    2820 2.4185771e-20   -3611.3973 1.0684504e-10    59907.562    3.1868027    39.128561 
    2830 2.6556206e-20   -3611.3973 -7.3892437e-11    59907.562    3.1868027    39.128561 
    2840 2.8953778e-20   -3611.3973 -2.1643789e-10    59907.562    3.1868027    39.128561 
    2850 3.1339628e-20   -3611.3973 -9.1904121e-11    59907.562    3.1868027    39.128561 
    2860 3.3667805e-20   -3611.3973 8.8616673e-11    59907.562    3.1868027    39.128561 
    2870 3.5892931e-20   -3611.3973 2.1521897e-10    59907.562    3.1868027    39.128561 
    2880 3.7967478e-20   -3611.3973 7.087432e-11    59907.562    3.1868027    39.128561 
    2890 3.983886e-20   -3611.3973 -1.0952392e-10    59907.562    3.1868027    39.128561 
    2900 4.1470761e-20   -3611.3973 -2.179217e-10    59907.562    3.1868027    39.128561 
    2910 4.2834757e-20   -3611.3973 -5.5379355e-11    59907.562    3.1868027    39.128561 
    2920 4.3911261e-20   -3611.3973 1.2566522e-10    59907.562    3.1868027    39.128561 
    2930 4.4683535e-20   -3611.3973 2.3268456e-10    59907.562    3.1868027    39.128561 
    2940 4.5143599e-20   -3611.3973 -1.4658273e-12    59907.562    3.1868027    39.128561 
    2950 4.5293329e-20   -3611.3973 -2.3558707e-10    59907.562    3.1868027    39.128561 
    2960 4.513923e-20   -3611.3973 -1.4537617e-10    59907.562    3.1868027    39.128561 
    2970 4.4698592e-20   -3611.3973 1.9704714e-10    59907.562    3.1868027    39.128561 
    2980 4.4001398e-20   -3611.3973 1.9673969e-10    59907.562    3.1868027    39.128561 
    2990 4.3092263e-20   -3611.3973 -1.4548613e-10    59907.562    3.1868027    39.128561 
    3000 4.2026588e-20   -3611.3973 -2.5339158e-10    59907.562    3.1868027    39.128561 
    3010 4.086312e-20   -3611.3973 8.8751571e-11    59907.562    3.1868027    39.128561 
    3020 3.9675491e-20   -3611.3973 2.6822304e-10    59907.562    3.1868027    39.128561 
    3030 3.8543929e-20   -3611.3973 -1.4235544e-12    59907.562    3.1868027    39.128561 
    3040 3.7550483e-20   -3611.3973 -2.7140281e-10    59907.562    3.1868027    39.128561 
    3050 3.677817e-20   -3611.3973 -9.0829148e-11    59907.562    3.1868027    39.128561 
    3060 3.6314879e-20   -3611.3973 2.8650504e-10    59907.562    3.1868027    39.128561 
    3070 3.6243286e-20   -3611.3973 1.0659711e-10    59907.562    3.1868027    39.128561 
    3080 3.6649459e-20   -3611.3973 -2.8984666e-10    59907.562    3.1868027    39.128561 
    3090 3.7608688e-20   -3611.3973 -1.2787206e-10    59907.562    3.1868027    39.128561 
    3100 3.9190275e-20   -3611.3973 2.6875665e-10    59907.562    3.1868027    39.128561 
    3110 4.1450264e-20   -3611.3973  1.78833e-10    59907.562    3.1868027    39.128561 
    3120 4.4433218e-20   -3611.3973 -2.722769e-10    59907.562    3.1868027    39.128561 
    3130 4.8170186e-20   -3611.3973 -1.8108853e-10    59907.562    3.1868027    39.128561 
    3140 5.2677027e-20   -3611.3973 2.6854684e-10    59907.562    3.1868027    39.128561 
    3150 5.7946455e-20   -3611.3973 1.7850337e-10    59907.562    3.1868027    39.128561 
    3160 6.3964933e-20   -3611.3973 -2.7146446e-10    59907.562    3.1868027    39.128561 
    3170 7.0692087e-20   -3611.3973 -2.1821356e-10    59907.562    3.1868027    39.128561 
    3180 7.8061174e-20   -3611.3973 2.8662985e-10    59907.562    3.1868027    39.128561 
    3190 8.6008487e-20   -3611.3973 2.1446301e-10    59907.562    3.1868027    39.128561 
    3200 9.4437508e-20   -3611.3973 -2.8969138e-10    59907.562    3.1868027    39.128561 
    3210 1.0324872e-19   -3611.3973 -2.1737411e-10    59907.562    3.1868027    39.128561 
    3220 1.1232053e-19   -3611.3973 2.8645531e-10    59907.562    3.1868027    39.128561 
    3230 1.215167e-19   -3611.3973 2.1424602e-10    59907.562    3.1868027    39.128561 
    3240 1.3070792e-19   -3611.3973 -2.8911128e-10    59907.562    3.1868027    39.128561 
    3250 1.3975968e-19   -3611.3973 -2.1762476e-10    59907.562    3.1868027    39.128561 
    3260 1.4852745e-19   -3611.3973 2.8722329e-10    59907.562    3.1868027    39.128561 
    3270 1.5688933e-19   -3611.3973 2.328459e-10    59907.562    3.1868027    39.128561 
    3280 1.6471549e-19   -3611.3973 -3.2492737e-10    59907.562    3.1868027    39.128561 
    3290 1.7190346e-19   -3611.3973 -1.8104613e-10    59907.562    3.1868027    39.128561 
    3300 1.7833636e-19   -3611.3973 3.2324515e-10    59907.562    3.1868027    39.128561 
    3310 1.8394765e-19   -3611.3973 1.2430301e-10    59907.562    3.1868027    39.128561 
    3320 1.8867822e-19   -3611.3973 -3.2563113e-10    59907.562    3.1868027    39.128561 
    3330 1.9248766e-19   -3611.3973 -9.1653067e-11    59907.562    3.1868027    39.128561 
    3340 1.9537323e-19   -3611.3973 3.0417228e-10    59907.562    3.1868027    39.128561 
    3350 1.9734531e-19   -3611.3973 1.2454249e-10    59907.562    3.1868027    39.128561 
    3360 1.9844633e-19   -3611.3973 -3.2607374e-10    59907.562    3.1868027    39.128561 
    3370 1.9875277e-19   -3611.3973 -9.1503057e-11    59907.562    3.1868027    39.128561 
    3380 1.9837706e-19   -3611.3973 3.4097844e-10    59907.562    3.1868027    39.128561 
    3390 1.9745546e-19   -3611.3973 3.4928001e-11    59907.562    3.1868027    39.128561 
    3400 1.9615017e-19   -3611.3973 -3.4329426e-10    59907.562    3.1868027    39.128561 
    3410 1.9465063e-19   -3611.3973 1.6265397e-11    59907.562    3.1868027    39.128561 
    3420 1.9316373e-19   -3611.3973 3.2239914e-10    59907.562    3.1868027    39.128561 
    3430 1.919028e-19   -3611.3973 -1.4347469e-12    59907.562    3.1868027    39.128561 
    3440 1.9110531e-19   -3611.3973 -3.2515561e-10    59907.562    3.1868027    39.128561 
    3450 1.9102018e-19   -3611.3973 -1.934885e-11    59907.562    3.1868027    39.128561 
    3460 1.9190209e-19   -3611.3973 3.4080735e-10    59907.562    3.1868027    39.128561 
    3470 1.9399598e-19   -3611.3973 -1.9393484e-11    59907.562    3.1868027    39.128561 
    3480 1.9753891e-19   -3611.3973 -3.8025897e-10    59907.562    3.1868027    39.128561 
    3490 2.0276912e-19   -3611.3973 7.1136069e-11    59907.562    3.1868027    39.128561 
    3500 2.0990451e-19   -3611.3973 4.1318626e-10    59907.562    3.1868027    39.128561 
    3510 2.1913179e-19   -3611.3973 -1.4578281e-10    59907.562    3.1868027    39.128561 
    3520 2.3061585e-19   -3611.3973 -3.9761913e-10    59907.562    3.1868027    39.128561 
    3530 2.4449807e-19   -3611.3973 2.1444672e-10    59907.562    3.1868027    39.128561 
    3540 2.609006e-19   -3611.3973 3.7664954e-10    59907.562    3.1868027    39.128561 
    3550 2.7986997e-19   -3611.3973 -2.9003651e-10    59907.562    3.1868027    39.128561 
    3560 3.0142435e-19   -3611.3973 -3.6172004e-10    59907.562    3.1868027    39.128561 
    3570 3.2554509e-19   -3611.3973 3.5898746e-10    59907.562    3.1868027    39.128561 
    3580 3.5216768e-19   -3611.3973  3.41209e-10    59907.562    3.1868027    39.128561 
    3590 3.8117023e-19   -3611.3973 -3.8046344e-10    59907.562    3.1868027    39.128561 
    3600 4.1240015e-19   -3611.3973 -3.0767576e-10    59907.562    3.1868027    39.128561 
    3610 4.4567028e-19   -3611.3973 3.5946941e-10    59907.562    3.1868027    39.128561 
    3620 4.8075658e-19   -3611.3973 2.8644892e-10    59907.562    3.1868027    39.128561 
    3630 5.1737873e-19   -3611.3973 -3.7919485e-10    59907.562    3.1868027    39.128561 
    3640 5.5523143e-19   -3611.3973 -2.1749282e-10    59907.562    3.1868027    39.128561 
    3650 5.9394452e-19   -3611.3973 3.9502782e-10    59907.562    3.1868027    39.128561 
    3660 6.3315111e-19   -3611.3973 1.4292422e-10    59907.562    3.1868027    39.128561 
    3670 6.7245544e-19   -3611.3973 -4.1567093e-10    59907.562    3.1868027    39.128561 
    3680 7.1145712e-19   -3611.3973 -7.2885128e-11    59907.562    3.1868027    39.128561 
    3690 7.497686e-19   -3611.3973 4.1311984e-10    59907.562    3.1868027    39.128561 
    3700 7.8700971e-19   -3611.3973 -1.4555639e-12    59907.562    3.1868027    39.128561 
    3710 8.2280752e-19   -3611.3973 -4.1536507e-10    59907.562    3.1868027    39.128561 
    3720 8.5677856e-19   -3611.3973 7.0743712e-11    59907.562    3.1868027    39.128561 
    3730 8.8861068e-19   -3611.3973 4.1280228e-10    59907.562    3.1868027    39.128561 
    3740 9.1802243e-19   -3611.3973 -9.1169881e-11    59907.562    3.1868027    39.128561 
    3750 9.4480442e-19   -3611.3973 -4.3371633e-10    59907.562    3.1868027    39.128561 
    3760 9.6879947e-19   -3611.3973 1.250682e-10    59907.562    3.1868027    39.128561 
    3770 9.899222e-19   -3611.3973 4.4908352e-10    59907.562    3.1868027    39.128561 
    3780 1.0081771e-18   -3611.3973 -1.639781e-10    59907.562    3.1868027    39.128561 
    3790 1.0236746e-18   -3611.3973 -4.3376028e-10    59907.562    3.1868027    39.128561 
    3800 1.0366132e-18   -3611.3973 1.7878174e-10    59907.562    3.1868027    39.128561 
    3810 1.0473048e-18   -3611.3973 4.1295491e-10    59907.562    3.1868027    39.128561 
    3820 1.0562189e-18   -3611.3973 -1.9935887e-10    59907.562    3.1868027    39.128561 
    3830 1.0639358e-18   -3611.3973 -4.3375952e-10    59907.562    3.1868027    39.128561 
    3840 1.0711242e-18   -3611.3973 2.3305733e-10    59907.562    3.1868027    39.128561 
    3850 1.0785828e-18   -3611.3973 4.1241506e-10    59907.562    3.1868027    39.128561 
    3860 1.0872492e-18   -3611.3973 -2.5324043e-10    59907.562    3.1868027    39.128561 
    3870 1.0981518e-18   -3611.3973 -3.9755751e-10    59907.562    3.1868027    39.128561 
    3880 1.112416e-18   -3611.3973 2.6906198e-10    59907.562    3.1868027    39.128561 
    3890 1.1312322e-18   -3611.3973 4.1327529e-10    59907.562    3.1868027    39.128561 
    3900 1.1558649e-18   -3611.3973 -3.0725127e-10    59907.562    3.1868027    39.128561 
    3910 1.1876278e-18   -3611.3973 -3.7958966e-10    59907.562    3.1868027    39.128561 
    3920 1.2277861e-18   -3611.3973 3.4088837e-10    59907.562    3.1868027    39.128561 
    3930 1.2776179e-18   -3611.3973 3.5912377e-10    59907.562    3.1868027    39.128561 
    3940 1.3383612e-18   -3611.3973 -3.6133029e-10    59907.562    3.1868027    39.128561 
    3950 1.4111517e-18   -3611.3973 -3.4383643e-10    59907.562    3.1868027    39.128561 
    3960 1.4969409e-18   -3611.3973 3.7695928e-10    59907.562    3.1868027    39.128561 
    3970 1.5965277e-18   -3611.3973 3.0477345e-10    59907.562    3.1868027    39.128561 
    3980 1.7105131e-18   -3611.3973 -3.6146847e-10    59907.562    3.1868027    39.128561 
    3990 1.8392076e-18   -3611.3973 -2.7168348e-10    59907.562    3.1868027    39.128561 
    4000 1.9826594e-18   -3611.3973 3.4055324e-10    59907.562    3.1868027    39.128561 
    4010 2.1405648e-18   -3611.3973 2.3283408e-10    59907.562    3.1868027    39.128561 
    4020 2.3122924e-18   -3611.3973 -3.2529308e-10    59907.562    3.1868027    39.128561 
    4030 2.4968344e-18   -3611.3973 -1.9938617e-10    59907.562    3.1868027    39.128561 
    4040 2.6928232e-18   -3611.3973 3.5889547e-10    59907.562    3.1868027    39.128561 
    4050 2.8985034e-18   -3611.3973 1.6100499e-10    59907.562    3.1868027    39.128561 
    4060 3.1117238e-18   -3611.3973 -3.9820591e-10    59907.562    3.1868027    39.128561 
    4070 3.330024e-18   -3611.3973 -1.2741596e-10    59907.562    3.1868027    39.128561 
    4080 3.5506676e-18   -3611.3973 4.3088947e-10    59907.562    3.1868027    39.128561 
    4090 3.7706365e-18   -3611.3973 8.8356079e-11    59907.562    3.1868027    39.128561 
    4100 3.9867305e-18   -3611.3973 -4.1572107e-10    59907.562    3.1868027    39.128561 
    4110 4.195664e-18   -3611.3973 -7.336361e-11    59907.562    3.1868027    39.128561 
    4120 4.3941434e-18   -3611.3973 4.3069085e-10    59907.562    3.1868027    39.128561 
    4130 4.5789434e-18   -3611.3973 1.6420037e-11    59907.562    3.1868027    39.128561 
    4140 4.7470441e-18   -3611.3973 -4.1574621e-10    59907.562    3.1868027    39.128561 
    4150 4.8958173e-18   -3611.3973 1.7344387e-11    59907.562    3.1868027    39.128561 
    4160 5.0230697e-18   -3611.3973 4.3116864e-10    59907.562    3.1868027    39.128561 
    4170 5.1271909e-18   -3611.3973 -5.5712524e-11    59907.562    3.1868027    39.128561 
    4180 5.2072752e-18   -3611.3973 -4.6976196e-10    59907.562    3.1868027    39.128561 
    4190 5.2633206e-18   -3611.3973 8.8303592e-11    59907.562    3.1868027    39.128561 
    4200 5.2962255e-18   -3611.3973 4.4919656e-10    59907.562    3.1868027    39.128561 
    4210 5.3079233e-18   -3611.3973 -1.0954159e-10    59907.562    3.1868027    39.128561 
    4220 5.3014689e-18   -3611.3973 -4.340472e-10    59907.562    3.1868027    39.128561 
    4230 5.2811337e-18   -3611.3973 1.2477222e-10    59907.562    3.1868027    39.128561 
    4240 5.2522982e-18   -3611.3973 4.4856762e-10    59907.562    3.1868027    39.128561 
    4250 5.2214438e-18   -3611.3973 -1.0950504e-10    59907.562    3.1868027    39.128561 
    4260 5.1962126e-18   -3611.3973 -4.6949673e-10    59907.562    3.1868027    39.128561 
    4270 5.1852241e-18   -3611.3973 8.9035923e-11    59907.562    3.1868027    39.128561 
    4280 5.1979863e-18   -3611.3973 5.034148e-10    59907.562    3.1868027    39.128561 
    4290 5.2446175e-18   -3611.3973 -2.7151056e-10    59907.562    3.1868027    39.128561 
    4300 5.335636e-18   -3611.3973 -5.0572598e-10    59907.562    3.1868027    39.128561 
    4310 5.4818105e-18   -3611.3973 3.7715098e-10    59907.562    3.1868027    39.128561 
    4320 5.6937373e-18   -3611.3973 4.3101488e-10    59907.562    3.1868027    39.128561 
    4330 5.9816171e-18   -3611.3973 -5.0600479e-10    59907.562    3.1868027    39.128561 
    4340 6.3548578e-18   -3611.3973 -3.0765631e-10    59907.562    3.1868027    39.128561 
    4350 6.821691e-18   -3611.3973 5.750083e-10    59907.562    3.1868027    39.128561 
    4360 7.3888384e-18   -3611.3973 5.2889715e-11    59907.562    3.1868027    39.128561 
    4370 8.0611475e-18   -3611.3973 -5.5989963e-10    59907.562    3.1868027    39.128561 
    4380 8.8412675e-18   -3611.3973 1.603617e-10    59907.562    3.1868027    39.128561 
    4390 9.7293359e-18   -3611.3973 5.3930141e-10    59907.562    3.1868027    39.128561 
    4400 1.0722748e-17   -3611.3973 -3.4393648e-10    59907.562    3.1868027    39.128561 
    4410 1.1815968e-17   -3611.3973 -4.3409464e-10    59907.562    3.1868027    39.128561 
    4420 1.3000371e-17   -3611.3973 4.4913257e-10    59907.562    3.1868027    39.128561 
    4430 1.4264262e-17   -3611.3973 3.0465393e-10    59907.562    3.1868027    39.128561 
    4440 1.5592969e-17   -3611.3973 -4.1600541e-10    59907.562    3.1868027    39.128561 
    4450 1.6968895e-17   -3611.3973 -3.4344307e-10    59907.562    3.1868027    39.128561 
    4460 1.8371843e-17   -3611.3973 4.3045302e-10    59907.562    3.1868027    39.128561 
    4470 1.9779529e-17   -3611.3973 2.8696145e-10    59907.562    3.1868027    39.128561 
    4480 2.1167996e-17   -3611.3973 -4.3342288e-10    59907.562    3.1868027    39.128561 
    4490 2.2512166e-17   -3611.3973 -2.894934e-10    59907.562    3.1868027    39.128561 
    4500 2.3786528e-17   -3611.3973 4.8484889e-10    59907.562    3.1868027    39.128561 
    4510 2.4966148e-17   -3611.3973 2.5062637e-10    59907.562    3.1868027    39.128561 
    4520 2.6027477e-17   -3611.3973 -5.77386e-10    59907.562    3.1868027    39.128561 
    4530 2.6949088e-17   -3611.3973 -1.8830717e-12    59907.562    3.1868027    39.128561 
    4540 2.7712817e-17   -3611.3973 5.7501219e-10    59907.562    3.1868027    39.128561 
    4550 2.8304705e-17   -3611.3973 -2.5365852e-10    59907.562    3.1868027    39.128561 
    4560 2.8715792e-17   -3611.3973 -4.8778219e-10    59907.562    3.1868027    39.128561 
    4570 2.8943014e-17   -3611.3973 3.4077089e-10    59907.562    3.1868027    39.128561 
    4580 2.8990131e-17   -3611.3973 4.3090906e-10    59907.562    3.1868027    39.128561 
    4590 2.8868336e-17   -3611.3973 -5.0563328e-10    59907.562    3.1868027    39.128561 
    4600 2.8596438e-17   -3611.3973 -3.0743837e-10    59907.562    3.1868027    39.128561 
    4610 2.8201316e-17   -3611.3973 5.7509947e-10    59907.562    3.1868027    39.128561 
    4620 2.771807e-17   -3611.3973 5.2978125e-11    59907.562    3.1868027    39.128561 
    4630 2.7189705e-17   -3611.3973 -6.1410251e-10    59907.562    3.1868027    39.128561 
    4640 2.6666493e-17   -3611.3973 2.6885062e-10    59907.562    3.1868027    39.128561 
    4650 2.6205441e-17   -3611.3973 6.1108965e-10    59907.562    3.1868027    39.128561 
    4660 2.5869166e-17   -3611.3973 -5.4185566e-10    59907.562    3.1868027    39.128561 
    4670 2.5724594e-17   -3611.3973 -4.1595318e-10    59907.562    3.1868027    39.128561 
    4680 2.5841284e-17   -3611.3973 6.4716529e-10    59907.562    3.1868027    39.128561 
    4690 2.6289623e-17   -3611.3973 5.2385887e-11    59907.562    3.1868027    39.128561 
    4700 2.7138823e-17   -3611.3973 -6.3229028e-10    59907.562    3.1868027    39.128561 
    4710 2.8454615e-17   -3611.3973 2.509019e-10    59907.562    3.1868027    39.128561 
    4720 3.0297068e-17   -3611.3973 5.9324498e-10    59907.562    3.1868027    39.128561 
    4730 3.2718123e-17   -3611.3973 -5.6021542e-10    59907.562    3.1868027    39.128561 
    4740 3.5759302e-17   -3611.3973 -3.6157392e-10    59907.562    3.1868027    39.128561 
    4750 3.9449468e-17   -3611.3973 6.6509365e-10    59907.562    3.1868027    39.128561 
    4760 4.3802868e-17   -3611.3973 -1.1103952e-12    59907.562    3.1868027    39.128561 
    4770 4.8817321e-17   -3611.3973 -6.679748e-10    59907.562    3.1868027    39.128561 
    4780 5.447281e-17   -3611.3973 3.7711574e-10    59907.562    3.1868027    39.128561 
    4790 6.0730659e-17   -3611.3973 5.7506067e-10    59907.562    3.1868027    39.128561 
    4800 6.7532912e-17   -3611.3973 -6.4960882e-10    59907.562    3.1868027    39.128561 
    4810 7.4802596e-17   -3611.3973 -2.5372624e-10    59907.562    3.1868027    39.128561 
    4820 8.244455e-17   -3611.3973 6.8296041e-10    59907.562    3.1868027    39.128561 
    4830 9.0346785e-17   -3611.3973 -7.3937541e-11    59907.562    3.1868027    39.128561 
    4840 9.8382623e-17   -3611.3973 -6.8584085e-10    59907.562    3.1868027    39.128561 
    4850 1.0641372e-16   -3611.3973 4.1394727e-10    59907.562    3.1868027    39.128561 
    4860 1.1429358e-16   -3611.3973 5.5717156e-10    59907.562    3.1868027    39.128561 
    4870 1.2187151e-16   -3611.3973 -5.9547657e-10    59907.562    3.1868027    39.128561 
    4880 1.2899744e-16   -3611.3973 -2.5323873e-10    59907.562    3.1868027    39.128561 
    4890 1.3552718e-16   -3611.3973 6.2926629e-10    59907.562    3.1868027    39.128561 
    4900 1.413277e-16   -3611.3973 -5.5097247e-11    59907.562    3.1868027    39.128561 
    4910 1.4628312e-16   -3611.3973 -6.500316e-10    59907.562    3.1868027    39.128561 
    4920 1.5030026e-16   -3611.3973 4.3100762e-10    59907.562    3.1868027    39.128561 
    4930 1.5331431e-16   -3611.3973 5.0338294e-10    59907.562    3.1868027    39.128561 
    4940 1.5529392e-16   -3611.3973 -6.4972148e-10    59907.562    3.1868027    39.128561 
    4950 1.5624599e-16   -3611.3973 -1.8144294e-10    59907.562    3.1868027    39.128561 
    4960 1.5621977e-16   -3611.3973 6.8331883e-10    59907.562    3.1868027    39.128561 
    4970 1.553094e-16   -3611.3973 -2.1771696e-10    59907.562    3.1868027    39.128561 
    4980 1.5365602e-16   -3611.3973 -6.5012748e-10    59907.562    3.1868027    39.128561 
    4990 1.5144846e-16   -3611.3973 5.0308512e-10    59907.562    3.1868027    39.128561 
    5000 1.4892198e-16   -3611.3973 4.8448064e-10    59907.562    3.1868027    39.128561 
    5010 1.4635582e-16   -3611.3973 -6.8650552e-10    59907.562    3.1868027    39.128561 
    5020 1.4406919e-16   -3611.3973 -1.0935535e-10    59907.562    3.1868027    39.128561 
    5030 1.4241538e-16   -3611.3973 7.5490485e-10    59907.562    3.1868027    39.128561 
    5040 1.4177446e-16   -3611.3973 -2.894484e-10    59907.562    3.1868027    39.128561 
    5050 1.4254395e-16   -3611.3973 -6.4989495e-10    59907.562    3.1868027    39.128561 
    5060 1.4512875e-16   -3611.3973 5.9291463e-10    59907.562    3.1868027    39.128561 
    5070 1.4992949e-16   -3611.3973 4.3130499e-10    59907.562    3.1868027    39.128561 
    5080 1.5732951e-16   -3611.3973 -7.3999232e-10    59907.562    3.1868027    39.128561 
    5090 1.6768209e-16   -3611.3973 -1.6328638e-10    59907.562    3.1868027    39.128561 
    5100 1.8129687e-16   -3611.3973 8.4506877e-10    59907.562    3.1868027    39.128561 
    5110 1.9842619e-16   -3611.3973 -2.3561134e-10    59907.562    3.1868027    39.128561 
    5120 2.1925249e-16   -3611.3973 -8.11907e-10    59907.562    3.1868027    39.128561 
    5130 2.4387671e-16   -3611.3973 5.3879339e-10    59907.562    3.1868027    39.128561 
    5140 2.7230775e-16   -3611.3973 6.6477643e-10    59907.562    3.1868027    39.128561 
    5150 3.0445417e-16   -3611.3973 -7.9375676e-10    59907.562    3.1868027    39.128561 
    5160 3.4011883e-16   -3611.3973 -3.2554255e-10    59907.562    3.1868027    39.128561 
    5170 3.789959e-16   -3611.3973 9.1735802e-10    59907.562    3.1868027    39.128561 
    5180 4.2067109e-16   -3611.3973 -8.5893949e-13    59907.562    3.1868027    39.128561 
    5190 4.6462554e-16   -3611.3973 -9.2023429e-10    59907.562    3.1868027    39.128561 
    5200 5.1024414e-16   -3611.3973 3.4062026e-10    59907.562    3.1868027    39.128561 
    5210 5.5682708e-16   -3611.3973 8.0950666e-10    59907.562    3.1868027    39.128561 
    5220 6.0360497e-16   -3611.3973 -6.6811644e-10    59907.562    3.1868027    39.128561 
    5230  6.49759e-16   -3611.3973 -5.4210604e-10    59907.562    3.1868027    39.128561 
    5240 6.9444398e-16   -3611.3973 8.634391e-10    59907.562    3.1868027    39.128561 
    5250 7.368138e-16   -3611.3973 2.5055481e-10    59907.562    3.1868027    39.128561 
    5260 7.7605069e-16   -3611.3973 -9.5584912e-10    59907.562    3.1868027    39.128561 
    5270 8.113965e-16   -3611.3973 8.876899e-11    59907.562    3.1868027    39.128561 
    5280 8.421844e-16   -3611.3973 9.5336646e-10    59907.562    3.1868027    39.128561 
    5290 8.678709e-16   -3611.3973 -3.9805865e-10    59907.562    3.1868027    39.128561 
    5300 8.880678e-16   -3611.3973 -8.4777428e-10    59907.562    3.1868027    39.128561 
    5310 9.0257237e-16   -3611.3973 6.6496806e-10    59907.562    3.1868027    39.128561 
    5320 9.113941e-16   -3611.3973 6.2906495e-10    59907.562    3.1868027    39.128561 
    5330 9.1477741e-16   -3611.3973 -9.5587059e-10    59907.562    3.1868027    39.128561 
    5340 9.1322047e-16   -3611.3973 -3.6186938e-10    59907.562    3.1868027    39.128561 
    5350 9.0748689e-16   -3611.3973 1.0613794e-09    59907.562    3.1868027    39.128561 
    5360 8.9861011e-16   -3611.3973 -3.7496718e-11    59907.562    3.1868027    39.128561 
    5370 8.8789069e-16   -3611.3973 -1.1000951e-09    59907.562    3.1868027    39.128561 
    5380 8.7688528e-16   -3611.3973 5.2102896e-10    59907.562    3.1868027    39.128561 
    5390 8.6738532e-16   -3611.3973 8.9957705e-10    59907.562    3.1868027    39.128561 
    5400 8.6138791e-16   -3611.3973 -9.0209483e-10    59907.562    3.1868027    39.128561 
    5410 8.6105731e-16   -3611.3973 -5.4216091e-10    59907.562    3.1868027    39.128561 
    5420 8.686783e-16   -3611.3973 1.1338792e-09    59907.562    3.1868027    39.128561 
    5430 8.8660078e-16   -3611.3973 8.8569381e-11    59907.562    3.1868027    39.128561 
    5440 9.1717793e-16   -3611.3973 -1.1900937e-09    59907.562    3.1868027    39.128561 
    5450 9.6269964e-16   -3611.3973 4.1293953e-10    59907.562    3.1868027    39.128561 
    5460 1.0253204e-15   -3611.3973 1.1516841e-09    59907.562    3.1868027    39.128561 
    5470 1.1069859e-15   -3611.3973 -8.8352168e-10    59907.562    3.1868027    39.128561 
    5480 1.2093605e-15   -3611.3973 -8.3003875e-10    59907.562    3.1868027    39.128561 
    5490 1.3337564e-15   -3611.3973 1.1694718e-09    59907.562    3.1868027    39.128561 
    5500 1.4810679e-15   -3611.3973 3.4105802e-10    59907.562    3.1868027    39.128561 
    5510 1.6517129e-15   -3611.3973 -1.2803583e-09    59907.562    3.1868027    39.128561 
    5520 1.8455843e-15   -3611.3973 2.1515796e-10    59907.562    3.1868027    39.128561 
    5530 2.0620144e-15   -3611.3973 1.2952929e-09    59907.562    3.1868027    39.128561 
    5540 2.2997542e-15   -3611.3973 -8.2957695e-10    59907.562    3.1868027    39.128561 
    5550 2.5569687e-15   -3611.3973 -9.9231932e-10    59907.562    3.1868027    39.128561 
    5560 2.8312507e-15   -3611.3973 1.3139685e-09    59907.562    3.1868027    39.128561 
    5570 3.1196546e-15   -3611.3973  3.58609e-10    59907.562    3.1868027    39.128561 
    5580 3.4187515e-15   -3611.3973 -1.4426003e-09    59907.562    3.1868027    39.128561 
    5590 3.7247028e-15   -3611.3973 3.2259107e-10    59907.562    3.1868027    39.128561 
    5600 4.0333563e-15   -3611.3973 1.3313103e-09    59907.562    3.1868027    39.128561 
    5610 4.3403613e-15   -3611.3973 -9.7411391e-10    59907.562    3.1868027    39.128561 
    5620 4.6412979e-15   -3611.3973 -9.1994312e-10    59907.562    3.1868027    39.128561 
    5630 4.9318254e-15   -3611.3973 1.4400204e-09    59907.562    3.1868027    39.128561 
    5640 5.2078406e-15   -3611.3973 3.0528518e-10    59907.562    3.1868027    39.128561 
    5650 5.4656405e-15   -3611.3973 -1.6038436e-09    59907.562    3.1868027    39.128561 
    5660 5.702096e-15   -3611.3973 3.9481914e-10    59907.562    3.1868027    39.128561 
    5670 5.9148152e-15   -3611.3973 1.4577365e-09    59907.562    3.1868027    39.128561 
    5680 6.1023059e-15   -3611.3973 -1.063885e-09    59907.562    3.1868027    39.128561 
    5690 6.2641236e-15   -3611.3973 -1.0639191e-09    59907.562    3.1868027    39.128561 
    5700 6.4010041e-15   -3611.3973 1.5840931e-09    59907.562    3.1868027    39.128561 
    5710 6.5149692e-15   -3611.3973 3.4089672e-10    59907.562    3.1868027    39.128561 
    5720 6.6094032e-15   -3611.3973 -1.7662244e-09    59907.562    3.1868027    39.128561 
    5730   6.6891e-15   -3611.3973 4.3094874e-10    59907.562    3.1868027    39.128561 
    5740 6.7602701e-15   -3611.3973 1.6025126e-09    59907.562    3.1868027    39.128561 
    5750 6.8305034e-15   -3611.3973 -1.1176778e-09    59907.562    3.1868027    39.128561 
    5760 6.9086949e-15   -3611.3973 -1.1362426e-09    59907.562    3.1868027    39.128561 
    5770 7.0049227e-15   -3611.3973 1.5482559e-09    59907.562    3.1868027    39.128561 
    5780 7.1302786e-15   -3611.3973 4.4940699e-10    59907.562    3.1868027    39.128561 
    5790 7.2966582e-15   -3611.3973 -1.7846739e-09    59907.562    3.1868027    39.128561 
    5800 7.5165104e-15   -3611.3973 3.0558913e-10    59907.562    3.1868027    39.128561 
    5810 7.8025528e-15   -3611.3973 1.6924571e-09    59907.562    3.1868027    39.128561 
    5820 8.1674535e-15   -3611.3973 -9.9203495e-10    59907.562    3.1868027    39.128561 
    5830 8.623496e-15   -3611.3973 -1.3526531e-09    59907.562    3.1868027    39.128561 
    5840 9.1822272e-15   -3611.3973 1.5302896e-09    59907.562    3.1868027    39.128561 
    5850 9.854102e-15   -3611.3973 7.9183863e-10    59907.562    3.1868027    39.128561 
    5860 1.0648136e-14   -3611.3973 -1.9281144e-09    59907.562    3.1868027    39.128561 
    5870 1.1571581e-14   -3611.3973 3.535136e-11    59907.562    3.1868027    39.128561 
    5880 1.2629624e-14   -3611.3973 1.9978671e-09    59907.562    3.1868027    39.128561 
    5890 1.3825137e-14   -3611.3973 -9.0194462e-10    59907.562    3.1868027    39.128561 
    5900 1.5158482e-14   -3611.3973 -1.5862944e-09    59907.562    3.1868027    39.128561 
    5910 1.6627372e-14   -3611.3973 1.5302221e-09    59907.562    3.1868027    39.128561 
    5920 1.8226825e-14   -3611.3973 9.3561147e-10    59907.562    3.1868027    39.128561 
    5930 1.9949193e-14   -3611.3973 -1.9106814e-09    59907.562    3.1868027    39.128561 
    5940 2.178428e-14   -3611.3973 -1.4534702e-10    59907.562    3.1868027    39.128561 
    5950 2.3719562e-14   -3611.3973 1.9804933e-09    59907.562    3.1868027    39.128561 
    5960 2.5740509e-14   -3611.3973 -6.3192666e-10    59907.562    3.1868027    39.128561 
    5970 2.7830991e-14   -3611.3973 -1.8022091e-09    59907.562    3.1868027    39.128561 
    5980 2.9973785e-14   -3611.3973 1.4045041e-09    59907.562    3.1868027    39.128561 
    5990 3.2151167e-14   -3611.3973 1.2060866e-09    59907.562    3.1868027    39.128561 
    6000 3.4345585e-14   -3611.3973 -1.9647598e-09    59907.562    3.1868027    39.128561 
    6010 3.6540374e-14   -3611.3973 -3.6132435e-10    59907.562    3.1868027    39.128561 
    6020 3.8720533e-14   -3611.3973 2.052631e-09    59907.562    3.1868027    39.128561 
    6030 4.0873527e-14   -3611.3973 -5.4189754e-10    59907.562    3.1868027    39.128561 
    6040 4.2990085e-14   -3611.3973 -1.8920662e-09    59907.562    3.1868027    39.128561 
    6050 4.5064977e-14   -3611.3973 1.3143318e-09    59907.562    3.1868027    39.128561 
    6060 4.7097756e-14   -3611.3973 1.3865121e-09    59907.562    3.1868027    39.128561 
    6070 4.9093433e-14   -3611.3973 -1.9825662e-09    59907.562    3.1868027    39.128561 
    6080 5.1063034e-14   -3611.3973 -4.6903843e-10    59907.562    3.1868027    39.128561 
    6090 5.3024065e-14   -3611.3973 2.1433814e-09    59907.562    3.1868027    39.128561 
    6100 5.5000825e-14   -3611.3973 -4.6853807e-10    59907.562    3.1868027    39.128561 
    6110 5.7024556e-14   -3611.3973 -1.9817763e-09    59907.562    3.1868027    39.128561 
    6120 5.9133412e-14   -3611.3973 1.260928e-09    59907.562    3.1868027    39.128561 
    6130 6.1372252e-14   -3611.3973 1.4953471e-09    59907.562    3.1868027    39.128561 
    6140 6.3792233e-14   -3611.3973 -1.9816647e-09    59907.562    3.1868027    39.128561 
    6150 6.6450193e-14   -3611.3973 -6.1255702e-10    59907.562    3.1868027    39.128561 
    6160 6.9407853e-14   -3611.3973 2.2523545e-09    59907.562    3.1868027    39.128561 
    6170 7.2730841e-14   -3611.3973 -4.3202649e-10    59907.562    3.1868027    39.128561 
    6180 7.6487535e-14   -3611.3973 -2.071355e-09    59907.562    3.1868027    39.128561 
    6190 8.0747778e-14   -3611.3973 1.3517732e-09    59907.562    3.1868027    39.128561 
    6200 8.5581489e-14   -3611.3973 1.4778908e-09    59907.562    3.1868027    39.128561 
    6210 9.1057185e-14   -3611.3973 -1.998786e-09    59907.562    3.1868027    39.128561 
    6220 9.7240482e-14   -3611.3973 -6.3014497e-10    59907.562    3.1868027    39.128561 
    6230 1.0419261e-13   -3611.3973 2.2888352e-09    59907.562    3.1868027    39.128561 
    6240 1.1196899e-13   -3611.3973 -4.4940926e-10    59907.562    3.1868027    39.128561 
    6250 1.2061793e-13   -3611.3973 -2.0888489e-09    59907.562    3.1868027    39.128561 
    6260 1.301795e-13   -3611.3973 1.3881565e-09    59907.562    3.1868027    39.128561 
    6270 1.4068459e-13   -3611.3973 1.4963112e-09    59907.562    3.1868027    39.128561 
    6280 1.521543e-13   -3611.3973 -2.0885321e-09    59907.562    3.1868027    39.128561 
    6290 1.6459958e-13   -3611.3973 -5.2094905e-10    59907.562    3.1868027    39.128561 
    6300 1.7802127e-13   -3611.3973 2.3606007e-09    59907.562    3.1868027    39.128561 
    6310 1.9241051e-13   -3611.3973 -5.7495761e-10    59907.562    3.1868027    39.128561 
    6320 2.0774954e-13   -3611.3973 -2.1415987e-09    59907.562    3.1868027    39.128561 
    6330 2.2401297e-13   -3611.3973 1.5148536e-09    59907.562    3.1868027    39.128561 
    6340 2.4116941e-13   -3611.3973 1.5511284e-09    59907.562    3.1868027    39.128561 
    6350 2.5918359e-13   -3611.3973 -2.2500573e-09    59907.562    3.1868027    39.128561 
    6360 2.7801875e-13   -3611.3973 -5.5569803e-10    59907.562    3.1868027    39.128561 
    6370 2.9763956e-13   -3611.3973 2.4890201e-09    59907.562    3.1868027    39.128561 
    6380 3.1801515e-13   -3611.3973 -4.1111798e-10    59907.562    3.1868027    39.128561 
    6390 3.3912248e-13   -3611.3973 -2.4289634e-09    59907.562    3.1868027    39.128561 
    6400 3.6094993e-13   -3611.3973 1.4450193e-09    59907.562    3.1868027    39.128561 
    6410 3.8350084e-13   -3611.3973 1.8591582e-09    59907.562    3.1868027    39.128561 
    6420 4.0679716e-13   -3611.3973 -2.2111922e-09    59907.562    3.1868027    39.128561 
    6430 4.3088295e-13   -3611.3973 -1.0400792e-09    59907.562    3.1868027    39.128561 
    6440 4.558277e-13   -3611.3973 2.671553e-09    59907.562    3.1868027    39.128561 
    6450 4.8172934e-13   -3611.3973 4.1001152e-11    59907.562    3.1868027    39.128561 
    6460 5.0871683e-13   -3611.3973 -2.7320772e-09    59907.562    3.1868027    39.128561 
    6470 5.3695238e-13   -3611.3973 9.2593839e-10    59907.562    3.1868027    39.128561 
    6480 5.6663294e-13   -3611.3973 2.4217488e-09    59907.562    3.1868027    39.128561 
    6490 5.9799119e-13   -3611.3973 -1.9912867e-09    59907.562    3.1868027    39.128561 
    6500 6.312958e-13   -3611.3973 -1.6297502e-09    59907.562    3.1868027    39.128561 
    6510 6.6685096e-13   -3611.3973 2.6940532e-09    59907.562    3.1868027    39.128561 
    6520 7.0499519e-13   -3611.3973 6.2343734e-10    59907.562    3.1868027    39.128561 
    6530 7.4609944e-13   -3611.3973 -2.9790826e-09    59907.562    3.1868027    39.128561 
    6540 7.9056445e-13   -3611.3973 8.0528361e-10    59907.562    3.1868027    39.128561 
    6550 8.3881755e-13   -3611.3973 2.6259008e-09    59907.562    3.1868027    39.128561 
    6560 8.9130887e-13   -3611.3973 -2.0033972e-09    59907.562    3.1868027    39.128561 
    6570 9.4850705e-13   -3611.3973 -1.731972e-09    59907.562    3.1868027    39.128561 
    6580 1.0108947e-12   -3611.3973 2.8446251e-09    59907.562    3.1868027    39.128561 
    6590 1.0789639e-12   -3611.3973 5.2157307e-10    59907.562    3.1868027    39.128561 
    6600 1.1532108e-12   -3611.3973 -3.134409e-09    59907.562    3.1868027    39.128561 
    6610 1.2341322e-12   -3611.3973 8.6550631e-10    59907.562    3.1868027    39.128561 
    6620 1.3222201e-12   -3611.3973 2.7947465e-09    59907.562    3.1868027    39.128561 
    6630 1.4179593e-12   -3611.3973 -2.0684144e-09    59907.562    3.1868027    39.128561 
    6640 1.5218236e-12   -3611.3973 -1.8689837e-09    59907.562    3.1868027    39.128561 
    6650 1.6342745e-12   -3611.3973 2.924169e-09    59907.562    3.1868027    39.128561 
    6660 1.7557601e-12   -3611.3973 6.3813227e-10    59907.562    3.1868027    39.128561 
    6670 1.886716e-12   -3611.3973 -3.1623865e-09    59907.562    3.1868027    39.128561 
    6680 2.0275669e-12   -3611.3973 8.2038963e-10    59907.562    3.1868027    39.128561 
    6690 2.1787303e-12   -3611.3973 2.7681272e-09    59907.562    3.1868027    39.128561 
    6700 2.3406216e-12   -3611.3973 -1.9859414e-09    59907.562    3.1868027    39.128561 
    6710 2.5136607e-12   -3611.3973 -1.8760653e-09    59907.562    3.1868027    39.128561 
    6720 2.6982807e-12   -3611.3973 2.8276962e-09    59907.562    3.1868027    39.128561 
    6730 2.8949378e-12   -3611.3973 6.6913228e-10    59907.562    3.1868027    39.128561 
    6740 3.1041229e-12   -3611.3973 -3.1300267e-09    59907.562    3.1868027    39.128561 
    6750 3.3263746e-12   -3611.3973 7.8176135e-10    59907.562    3.1868027    39.128561 
    6760 3.5622936e-12   -3611.3973 2.8750391e-09    59907.562    3.1868027    39.128561 
    6770 3.8125581e-12   -3611.3973 -2.0224977e-09    59907.562    3.1868027    39.128561 
    6780 4.0779396e-12   -3611.3973 -2.0723126e-09    59907.562    3.1868027    39.128561 
    6790 4.3593201e-12   -3611.3973 3.0118504e-09    59907.562    3.1868027    39.128561 
    6800 4.6577091e-12   -3611.3973 7.6385201e-10    59907.562    3.1868027    39.128561 
    6810 4.9742606e-12   -3611.3973 -3.3749741e-09    59907.562    3.1868027    39.128561 
    6820 5.3102902e-12   -3611.3973 7.0165757e-10    59907.562    3.1868027    39.128561 
    6830 5.6672913e-12   -3611.3973 3.1744275e-09    59907.562    3.1868027    39.128561 
    6840 6.0469505e-12   -3611.3973 -2.0440017e-09    59907.562    3.1868027    39.128561 
    6850 6.4511626e-12   -3611.3973 -2.2727667e-09    59907.562    3.1868027    39.128561 
    6860 6.8820435e-12   -3611.3973 2.9950796e-09    59907.562    3.1868027    39.128561 
    6870 7.3419421e-12   -3611.3973 1.0562543e-09    59907.562    3.1868027    39.128561 
    6880 7.8334509e-12   -3611.3973 -3.4759667e-09    59907.562    3.1868027    39.128561 
    6890 8.3594147e-12   -3611.3973 3.1478729e-10    59907.562    3.1868027    39.128561 
    6900 8.9229377e-12   -3611.3973 3.3671236e-09    59907.562    3.1868027    39.128561 
    6910 9.5273898e-12   -3611.3973 -1.6674005e-09    59907.562    3.1868027    39.128561 
    6920 1.0176411e-11   -3611.3973 -2.7933533e-09    59907.562    3.1868027    39.128561 
    6930 1.0873913e-11   -3611.3973 2.9273592e-09    59907.562    3.1868027    39.128561 
    6940 1.1624086e-11   -3611.3973 1.5148575e-09    59907.562    3.1868027    39.128561 
    6950 1.2431396e-11   -3611.3973 -3.6982644e-09    59907.562    3.1868027    39.128561 
    6960 1.3300591e-11   -3611.3973 -1.225434e-11    59907.562    3.1868027    39.128561 
    6970  1.42367e-11   -3611.3973 3.6753071e-09    59907.562    3.1868027    39.128561 
    6980 1.524504e-11   -3611.3973 -1.4809106e-09    59907.562    3.1868027    39.128561 
    6990 1.633122e-11   -3611.3973 -3.1782765e-09    59907.562    3.1868027    39.128561 
    7000 1.7501147e-11   -3611.3973 2.8535048e-09    59907.562    3.1868027    39.128561 
    7010 1.8761038e-11   -3611.3973 1.9683155e-09    59907.562    3.1868027    39.128561 
    7020 2.0117431e-11   -3611.3973 -3.7794681e-09    59907.562    3.1868027    39.128561 
    7030 2.1577207e-11   -3611.3973 -3.9240646e-10    59907.562    3.1868027    39.128561 
    7040 2.3147609e-11   -3611.3973 4.0219171e-09    59907.562    3.1868027    39.128561 
    7050 2.483627e-11   -3611.3973 -1.3434341e-09    59907.562    3.1868027    39.128561 
    7060 2.6651246e-11   -3611.3973 -3.4474398e-09    59907.562    3.1868027    39.128561 
    7070 2.8601057e-11   -3611.3973 2.8271551e-09    59907.562    3.1868027    39.128561 
    7080 3.0694731e-11   -3611.3973 2.2223041e-09    59907.562    3.1868027    39.128561 
    7090 3.2941861e-11   -3611.3973 -3.8219291e-09    59907.562    3.1868027    39.128561 
    7100 3.5352662e-11   -3611.3973 -5.8587488e-10    59907.562    3.1868027    39.128561 
    7110 3.7938043e-11   -3611.3973 4.0580353e-09    59907.562    3.1868027    39.128561 
    7120 4.0709682e-11   -3611.3973 -1.1508117e-09    59907.562    3.1868027    39.128561 
    7130 4.3680111e-11   -3611.3973 -3.5644293e-09    59907.562    3.1868027    39.128561 
    7140 4.6862811e-11   -3611.3973 2.6168427e-09    59907.562    3.1868027    39.128561 
    7150 5.0272312e-11   -3611.3973 2.4978279e-09    59907.562    3.1868027    39.128561 
    7160 5.3924306e-11   -3611.3973 -3.7080717e-09    59907.562    3.1868027    39.128561 
    7170 5.7835763e-11   -3611.3973 -9.3933227e-10    59907.562    3.1868027    39.128561 
    7180 6.2025063e-11   -3611.3973 4.1575202e-09    59907.562    3.1868027    39.128561 
    7190 6.6512127e-11   -3611.3973 -7.9346741e-10    59907.562    3.1868027    39.128561 
    7200 7.1318567e-11   -3611.3973 -3.9756963e-09    59907.562    3.1868027    39.128561 
    7210 7.646784e-11   -3611.3973 2.4855087e-09    59907.562    3.1868027    39.128561 
    7220 8.1985408e-11   -3611.3973 2.9878057e-09    59907.562    3.1868027    39.128561 
    7230 8.7898911e-11   -3611.3973 -3.7827194e-09    59907.562    3.1868027    39.128561 
    7240 9.423835e-11   -3611.3973 -1.3947727e-09    59907.562    3.1868027    39.128561 
    7250 1.0103628e-10   -3611.3973 4.4017673e-09    59907.562    3.1868027    39.128561 
    7260 1.0832799e-10   -3611.3973 -4.0469395e-10    59907.562    3.1868027    39.128561 
    7270 1.1615175e-10   -3611.3973 -4.2672979e-09    59907.562    3.1868027    39.128561 
    7280 1.2454901e-10   -3611.3973 2.2162649e-09    59907.562    3.1868027    39.128561 
    7290 1.3356461e-10   -3611.3973 3.4123145e-09    59907.562    3.1868027    39.128561 
    7300 1.4324706e-10   -3611.3973 -3.7426799e-09    59907.562    3.1868027    39.128561 
    7310 1.5364879e-10   -3611.3973 -1.7734033e-09    59907.562    3.1868027    39.128561 
    7320 1.6482638e-10   -3611.3973 4.5817771e-09    59907.562    3.1868027    39.128561 
    7330 1.7684087e-10   -3611.3973 -1.4874897e-10    59907.562    3.1868027    39.128561 
    7340 1.8975807e-10   -3611.3973 -4.5829369e-09    59907.562    3.1868027    39.128561 
    7350 2.0364882e-10   -3611.3973 2.1658921e-09    59907.562    3.1868027    39.128561 
    7360 2.1858938e-10   -3611.3973 3.7006727e-09    59907.562    3.1868027    39.128561 
    7370 2.346617e-10   -3611.3973 -3.7399753e-09    59907.562    3.1868027    39.128561 
    7380 2.5195388e-10   -3611.3973 -2.105858e-09    59907.562    3.1868027    39.128561 
    7390 2.7056045e-10   -3611.3973 4.6955812e-09    59907.562    3.1868027    39.128561 
    7400 2.9058289e-10   -3611.3973 1.8096088e-10    59907.562    3.1868027    39.128561 
    7410 3.1212999e-10   -3611.3973 -4.9282563e-09    59907.562    3.1868027    39.128561 
    7420 3.3531837e-10   -3611.3973 1.9065831e-09    59907.562    3.1868027    39.128561 
    7430 3.6027298e-10   -3611.3973 4.1855829e-09    59907.562    3.1868027    39.128561 
    7440 3.8712764e-10   -3611.3973 -3.6561444e-09    59907.562    3.1868027    39.128561 
    7450 4.1602566e-10   -3611.3973 -2.6653421e-09    59907.562    3.1868027    39.128561 
    7460 4.4712046e-10   -3611.3973 4.7806178e-09    59907.562    3.1868027    39.128561 
    7470 4.8057631e-10   -3611.3973 6.7171846e-10    59907.562    3.1868027    39.128561 
    7480 5.1656908e-10   -3611.3973 -4.9942875e-09    59907.562    3.1868027    39.128561 
    7490 5.5528714e-10   -3611.3973 1.5304219e-09    59907.562    3.1868027    39.128561 
    7500 5.9693222e-10   -3611.3973 4.3608069e-09    59907.562    3.1868027    39.128561 
    7510 6.4172053e-10   -3611.3973 -3.3284569e-09    59907.562    3.1868027    39.128561 
    7520 6.8988386e-10   -3611.3973 -2.9806475e-09    59907.562    3.1868027    39.128561 
    7530 7.4167082e-10   -3611.3973 4.6529183e-09    59907.562    3.1868027    39.128561 
    7540 7.9734829e-10   -3611.3973 1.036399e-09    59907.562    3.1868027    39.128561 
    7550 8.572029e-10   -3611.3973 -5.1233739e-09    59907.562    3.1868027    39.128561 
    7560 9.2154276e-10   -3611.3973 1.2357491e-09    59907.562    3.1868027    39.128561 
    7570 9.9069929e-10   -3611.3973 4.7707369e-09    59907.562    3.1868027    39.128561 
    7580 1.0650293e-09   -3611.3973 -3.3057109e-09    59907.562    3.1868027    39.128561 
    7590 1.1449173e-09   -3611.3973 -3.3159275e-09    59907.562    3.1868027    39.128561 
    7600 1.2307777e-09   -3611.3973 4.8159576e-09    59907.562    3.1868027    39.128561 
    7610 1.3230578e-09   -3611.3973 1.3159337e-09    59907.562    3.1868027    39.128561 
    7620 1.4222405e-09   -3611.3973 -5.4686706e-09    59907.562    3.1868027    39.128561 
    7630 1.5288476e-09   -3611.3973 1.0402301e-09    59907.562    3.1868027    39.128561 
    7640 1.6434432e-09   -3611.3973 5.1775217e-09    59907.562    3.1868027    39.128561 
    7650 1.7666371e-09   -3611.3973 -3.2998728e-09    59907.562    3.1868027    39.128561 
    7660 1.8990892e-09   -3611.3973 -3.7946885e-09    59907.562    3.1868027    39.128561 
    7670 2.0415134e-09   -3611.3973 5.0720126e-09    59907.562    3.1868027    39.128561 
    7680 2.1946825e-09   -3611.3973 1.7249883e-09    59907.562    3.1868027    39.128561 
    7690 2.3594324e-09   -3611.3973 -5.8452091e-09    59907.562    3.1868027    39.128561 
    7700 2.536668e-09   -3611.3973 7.6558061e-10    59907.562    3.1868027    39.128561 
    7710 2.7273681e-09   -3611.3973 5.7663542e-09    59907.562    3.1868027    39.128561 
    7720 2.9325914e-09   -3611.3973 -3.133205e-09    59907.562    3.1868027    39.128561 
    7730 3.1534826e-09   -3611.3973 -4.3771169e-09    59907.562    3.1868027    39.128561 
    7740 3.3912788e-09   -3611.3973 5.1650174e-09    59907.562    3.1868027    39.128561 
    7750 3.6473165e-09   -3611.3973 2.3939659e-09    59907.562    3.1868027    39.128561 
    7760 3.9230382e-09   -3611.3973 -6.0814941e-09    59907.562    3.1868027    39.128561 
    7770 4.2200011e-09   -3611.3973 2.9086469e-10    59907.562    3.1868027    39.128561 
    7780 4.5398842e-09   -3611.3973 6.0365248e-09    59907.562    3.1868027    39.128561 
    7790 4.8844972e-09   -3611.3973 -2.7491538e-09    59907.562    3.1868027    39.128561 
    7800 5.2557897e-09   -3611.3973 -4.7366838e-09    59907.562    3.1868027    39.128561 
    7810 5.6558609e-09   -3611.3973 4.9800083e-09    59907.562    3.1868027    39.128561 
    7820 6.0869698e-09   -3611.3973 2.915107e-09    59907.562    3.1868027    39.128561 
    7830 6.5515466e-09   -3611.3973 -6.1840974e-09    59907.562    3.1868027    39.128561 
    7840 7.0522045e-09   -3611.3973 -7.7540078e-11    59907.562    3.1868027    39.128561 
    7850 7.5917525e-09   -3611.3973 6.5670112e-09    59907.562    3.1868027    39.128561 
    7860 8.1732101e-09   -3611.3973 -2.4499715e-09    59907.562    3.1868027    39.128561 
    7870 8.7998219e-09   -3611.3973 -5.3287396e-09    59907.562    3.1868027    39.128561 
    7880 9.4750745e-09   -3611.3973 5.0318266e-09    59907.562    3.1868027    39.128561 
    7890 1.0202715e-08   -3611.3973 3.5626008e-09    59907.562    3.1868027    39.128561 
    7900 1.0986771e-08   -3611.3973 -6.2854159e-09    59907.562    3.1868027    39.128561 
    7910 1.1831571e-08   -3611.3973 -6.1072543e-10    59907.562    3.1868027    39.128561 
    7920 1.2741771e-08   -3611.3973 7.0764308e-09    59907.562    3.1868027    39.128561 
    7930 1.3722379e-08   -3611.3973 -1.9188279e-09    59907.562    3.1868027    39.128561 
    7940 1.4778784e-08   -3611.3973 -5.9517884e-09    59907.562    3.1868027    39.128561 
    7950 1.5916789e-08   -3611.3973 5.0265781e-09    59907.562    3.1868027    39.128561 
    7960 1.7142644e-08   -3611.3973 4.3908337e-09    59907.562    3.1868027    39.128561 
    7970 1.8463086e-08   -3611.3973 -6.356644e-09    59907.562    3.1868027    39.128561 
    7980 1.9885377e-08   -3611.3973 -1.1171612e-09    59907.562    3.1868027    39.128561 
    7990 2.1417357e-08   -3611.3973 7.6963029e-09    59907.562    3.1868027    39.128561 
    8000 2.3067482e-08   -3611.3973 -1.2184276e-09    59907.562    3.1868027    39.128561 
    8010 2.4844887e-08   -3611.3973 -6.3737782e-09    59907.562    3.1868027    39.128561 
    8020 2.6759443e-08   -3611.3973 4.736559e-09    59907.562    3.1868027    39.128561 
    8030 2.8821813e-08   -3611.3973 5.3908028e-09    59907.562    3.1868027    39.128561 
    8040 3.1043529e-08   -3611.3973 -6.0102082e-09    59907.562    3.1868027    39.128561 
    8050 3.3437058e-08   -3611.3973 -1.9119578e-09    59907.562    3.1868027    39.128561 
    8060 3.6015886e-08   -3611.3973 8.0728387e-09    59907.562    3.1868027    39.128561 
    8070 3.8794598e-08   -3611.3973 -1.8320654e-10    59907.562    3.1868027    39.128561 
    8080 4.1788971e-08   -3611.3973 -6.6912572e-09    59907.562    3.1868027    39.128561 
    8090 4.5016071e-08   -3611.3973 4.4054797e-09    59907.562    3.1868027    39.128561 
    8100 4.8494356e-08   -3611.3973 6.4245607e-09    59907.562    3.1868027    39.128561 
    8110 5.2243787e-08   -3611.3973 -5.4638626e-09    59907.562    3.1868027    39.128561 
    8120 5.6285947e-08   -3611.3973 -2.3527383e-09    59907.562    3.1868027    39.128561 
    8130 6.0644164e-08   -3611.3973 8.5106486e-09    59907.562    3.1868027    39.128561 
    8140 6.5343653e-08   -3611.3973 8.0139461e-10    59907.562    3.1868027    39.128561 
    8150 7.0411654e-08   -3611.3973 -6.781335e-09    59907.562    3.1868027    39.128561 
    8160 7.5877589e-08   -3611.3973 4.5896932e-09    59907.562    3.1868027    39.128561 
    8170 8.1773227e-08   -3611.3973 7.4903191e-09    59907.562    3.1868027    39.128561 
    8180 8.8132862e-08   -3611.3973 -5.0153595e-09    59907.562    3.1868027    39.128561 
    8190 9.4993503e-08   -3611.3973 -2.3948681e-09    59907.562    3.1868027    39.128561 
    8200 1.0239508e-07   -3611.3973 9.3960962e-09    59907.562    3.1868027    39.128561 
    8210 1.1038065e-07   -3611.3973 1.995228e-09    59907.562    3.1868027    39.128561 
    8220 1.1899668e-07   -3611.3973 -6.5367177e-09    59907.562    3.1868027    39.128561 
    8230 1.2829324e-07   -3611.3973 4.8754304e-09    59907.562    3.1868027    39.128561 
    8240 1.3832432e-07   -3611.3973 9.0186789e-09    59907.562    3.1868027    39.128561 
    8250 1.4914814e-07   -3611.3973 -3.959737e-09    59907.562    3.1868027    39.128561 
    8260 1.6082744e-07   -3611.3973 -2.2121693e-09    59907.562    3.1868027    39.128561 
    8270 1.7342989e-07   -3611.3973 1.0678489e-08    59907.562    3.1868027    39.128561 
    8280 1.8702842e-07   -3611.3973 3.5735519e-09    59907.562    3.1868027    39.128561 
    8290 2.0170168e-07   -3611.3973 -5.7290605e-09    59907.562    3.1868027    39.128561 
    8300 2.1753448e-07   -3611.3973 5.9377633e-09    59907.562    3.1868027    39.128561 
    8310 2.346183e-07   -3611.3973 1.0868349e-08    59907.562    3.1868027    39.128561 
    8320 2.5305183e-07   -3611.3973 -2.2390001e-09    59907.562    3.1868027    39.128561 
    8330 2.7294157e-07   -3611.3973 -1.1665343e-09    59907.562    3.1868027    39.128561 
    8340 2.9440248e-07   -3611.3973 1.2420375e-08    59907.562    3.1868027    39.128561 
    8350 3.1755864e-07   -3611.3973 6.2957393e-09    59907.562    3.1868027    39.128561 
    8360 3.4254409e-07   -3611.3973 -3.95776e-09    59907.562    3.1868027    39.128561 
    8370 3.6950358e-07   -3611.3973 7.4832672e-09    59907.562    3.1868027    39.128561 
    8380 3.9859353e-07   -3611.3973 1.406838e-08    59907.562    3.1868027    39.128561 
    8390 4.2998298e-07   -3611.3973 6.2346406e-10    59907.562    3.1868027    39.128561 
    8400 4.6385464e-07   -3611.3973 6.6350771e-10    59907.562    3.1868027    39.128561 
    8410 5.0040606e-07   -3611.3973 1.5592423e-08    59907.562    3.1868027    39.128561 
    8420 5.3985085e-07   -3611.3973 1.0430014e-08    59907.562    3.1868027    39.128561 
    8430 5.8242002e-07   -3611.3973 -8.9913817e-10    59907.562    3.1868027    39.128561 
    8440 6.2836343e-07   -3611.3973 1.0511679e-08    59907.562    3.1868027    39.128561 
    8450 6.7795135e-07   -3611.3973 1.8794726e-08    59907.562    3.1868027    39.128561 
    8460 7.3147611e-07   -3611.3973 5.3883575e-09    59907.562    3.1868027    39.128561 
    8470 7.8925396e-07   -3611.3973 4.7352578e-09    59907.562    3.1868027    39.128561 
    8480 8.5162696e-07   -3611.3973 2.0502116e-08    59907.562    3.1868027    39.128561 
    8490 9.1896513e-07   -3611.3973 1.659404e-08    59907.562    3.1868027    39.128561 
    8500 9.9166867e-07   -3611.3973 4.5670137e-09    59907.562    3.1868027    39.128561 
    8510 1.0701704e-06   -3611.3973 1.6466689e-08    59907.562    3.1868027    39.128561 
    8520 1.1549384e-06   -3611.3973 2.6157525e-08    59907.562    3.1868027    39.128561 
    8530 1.2464788e-06   -3611.3973 1.3013022e-08    59907.562    3.1868027    39.128561 
    8540 1.3453389e-06   -3611.3973 1.2063406e-08    59907.562    3.1868027    39.128561 
    8550 1.4521103e-06   -3611.3973 2.9194092e-08    59907.562    3.1868027    39.128561 
    8560 1.5674324e-06   -3611.3973 2.6666772e-08    59907.562    3.1868027    39.128561 
    8570 1.6919965e-06   -3611.3973 1.4584748e-08    59907.562    3.1868027    39.128561 
[...]
  219050    96.984362   -2745.4904    18.326019    70726.821    2.6993095    41.355002 
  219060     97.12057   -2745.2009    10.350396    70755.157    2.6982285    41.360524 
  219070    97.257606    -2744.867    2.6200028     70783.89    2.6971332    41.366122 
  219080    97.385714   -2744.7184   -5.0999315    70812.405    2.6960471    41.371676 
  219090    97.499896    -2744.221   -11.615341    70840.112    2.6949926    41.377071 
  219100    97.604489   -2744.0465   -18.041706    70866.474    2.6939901    41.382203 
  219110    97.705726   -2743.4943    -22.92434    70891.023    2.6930572    41.386981 
  219120    97.810213   -2742.5306   -26.119015    70913.404    2.6922073    41.391336 
  219130    97.923614   -2741.6839   -28.586821    70933.371    2.6914494     41.39522 
  219140    98.049327   -2740.5442   -29.541547    70950.777    2.6907892    41.398606 
  219150     98.19025   -2739.5134   -29.768268    70965.572    2.6902282    41.401484 
  219160    98.351002   -2738.4878   -29.112858    70977.779    2.6897655    41.403857 
  219170    98.534157   -2737.4827   -27.685638    70987.505     2.689397    41.405748 
  219180    98.742387   -2736.6409   -25.853201    70994.874    2.6891178    41.407181 
  219190    98.979806   -2735.5263    -22.91251    71000.089    2.6889203    41.408195 
  219200    99.245512   -2735.2334   -21.092728    71003.396    2.6887951    41.408838 
  219210    99.542011   -2735.2045   -19.461501    71004.985    2.6887349    41.409147 
  219220    99.868948   -2735.1192    -17.52626    71005.011    2.6887339    41.409152 
  219230    100.22293   -2735.1135   -15.656309    71003.644    2.6887857    41.408886 
  219240    100.60059   -2735.3988   -14.336731    71001.045    2.6888841    41.408381 
  219250     100.9941   -2735.5302   -12.783658    70997.352     2.689024    41.407663 
  219260    101.39297   -2735.8128   -11.604302    70992.693    2.6892004    41.406757 
  219270    101.78499   -2736.5442   -11.354662    70987.165    2.6894098    41.405682 
  219280    102.15477   -2737.2218   -11.045783    70980.827      2.68965     41.40445 
  219290    102.48548   -2738.1206   -11.144535    70973.699    2.6899201    41.403064 
  219300    102.76254   -2738.8113   -10.773227    70965.788      2.69022    41.401525 
  219310     102.9737   -2739.3624   -10.016096    70957.132    2.6905482    41.399842 
  219320    103.10965   -2740.1219   -9.5082282    70947.782    2.6909027    41.398024 
  219330      103.164   -2740.7604   -8.6255846    70937.813    2.6912809    41.396084 
  219340    103.13236   -2740.8303   -6.5491014    70927.316    2.6916792    41.394043 
  219350    103.01527   -2741.1286   -4.8519335    70916.442    2.6920919    41.391927 
  219360    102.81625   -2740.8623   -2.1076159    70905.345    2.6925132    41.389768 
  219370    102.54211   -2741.1358  -0.51520746    70894.224    2.6929356    41.387604 
  219380     102.2032   -2741.6577   0.39164695    70883.207    2.6933542     41.38546 
  219390    101.81288   -2742.3815   0.63377085    70872.369     2.693766    41.383351 
  219400    101.38788   -2742.6686    1.3787482    70861.754    2.6941696    41.381284 
  219410    100.94809    -2742.936    1.8180003    70851.398    2.6945634    41.379268 
  219420    100.51314   -2743.4882    1.3855287    70841.316    2.6949468    41.377306 
  219430    100.10061   -2744.4206 -0.050144009    70831.473    2.6953213    41.375389 
  219440    99.727577    -2745.633   -2.2034832    70821.753    2.6956913    41.373496 
  219450    99.405386   -2746.2772   -3.3602902    70812.001    2.6960625    41.371597 
  219460    99.141992   -2747.5458   -5.7024074    70802.089    2.6964399    41.369667 
  219470    98.942958   -2748.3302   -7.0535987    70791.872    2.6968291    41.367677 
  219480    98.811757   -2749.5935   -9.2026672    70781.221    2.6972349    41.365602 
  219490    98.750384   -2750.7583   -11.012764    70769.987    2.6976631    41.363414 
  219500    98.758953   -2751.1997   -11.247588    70758.038    2.6981187    41.361085 
  219510    98.828433    -2753.161   -14.127456    70745.295    2.6986046    41.358602 
  219520    98.945181   -2754.4724    -15.41293    70731.597    2.6991273    41.355933 
  219530    99.092513   -2755.6067   -15.865543    70716.834    2.6996907    41.353055 
  219540    99.248762   -2757.0637   -16.302816    70700.968    2.7002966    41.349962 
  219550     99.39292   -2757.8956   -14.799425    70684.016    2.7009442    41.346657 
  219560    99.506166   -2758.7553   -12.524399    70666.105    2.7016288    41.343165 
  219570    99.573567   -2759.7193   -9.5869113    70647.398    2.7023441    41.339516 
  219580    99.587091   -2760.7632   -5.9535183    70628.126    2.7030815    41.335757 
  219590    99.543429   -2760.5753   0.79329689    70608.629    2.7038279    41.331953 
  219600    99.444292   -2760.3888    8.1313642    70589.424    2.7045635    41.328205 
  219610     99.29537   -2760.0498    16.123761    70571.086    2.7052663    41.324626 
  219620    99.109028   -2758.7631    26.007189     70554.26    2.7059115    41.321342 
  219630    98.902335   -2758.1343     34.38518    70539.676    2.7064709    41.318494 
  219640    98.694467   -2756.5818    43.929972    70528.008    2.7069187    41.316216 
  219650    98.505655   -2755.4012    51.804167    70519.947    2.7072281    41.314642 
  219660    98.358946   -2754.3535    58.138266    70516.078    2.7073766    41.313886 
  219670    98.272325   -2753.4503    62.630794    70516.868    2.7073463    41.314041 
  219680    98.261041    -2752.595    65.271909    70522.629    2.7071251    41.315166 
  219690    98.334355   -2751.1789    67.112162    70533.558    2.7067057      41.3173 
  219700    98.493158   -2751.0676    64.574846    70549.701    2.7060863    41.320452 
  219710    98.731739    -2750.271    61.564294    70570.857    2.7052751    41.324581 
  219720    99.039976   -2749.6352    56.643771     70596.73    2.7042836    41.329631 
  219730    99.401987   -2749.5192     49.36751    70626.883    2.7031291    41.335514 
  219740     99.80223   -2749.3796    41.072799    70660.713    2.7018349    41.342113 
  219750    100.22108   -2748.8324    32.791612    70697.553     2.700427    41.349297 
  219760    100.64135    -2748.343    23.926675     70736.72    2.6989318    41.356931 
  219770    101.05176   -2747.5935    15.362344    70777.502    2.6973766    41.364878 
  219780    101.44434   -2747.0412     6.474384    70819.197    2.6957885    41.372999 
  219790    101.81039   -2745.8151  -0.87925634    70861.103    2.6941943    41.381158 
  219800    102.14584   -2744.7071   -8.0468462    70902.596    2.6926177    41.389233 
  219810    102.45231   -2743.9137   -15.268498    70943.105    2.6910801    41.397114 
  219820    102.72939   -2742.3398   -20.366286    70982.094     2.689602    41.404696 
  219830    102.98058   -2740.8635   -24.936885    71019.145    2.6881988    41.411899 
  219840    103.21279    -2739.556   -29.052112    71053.889    2.6868843    41.418651 
  219850    103.43587   -2738.1452   -32.138716    71086.004    2.6856705     41.42489 
  219860    103.66301   -2737.0231   -34.900191    71115.263    2.6845655    41.430573 
  219870    103.90709   -2735.6573   -36.303029    71141.485     2.683576    41.435665 
  219880    104.18656   -2734.3657   -36.925845    71164.558    2.6827059    41.440144 
  219890    104.51936   -2733.3146    -37.08538    71184.473    2.6819554    41.444009 
  219900    104.91478   -2732.0673   -35.980333    71201.255    2.6813233    41.447265 
  219910    105.37189   -2731.4446   -35.211786    71214.982    2.6808064    41.449929 
  219920    105.87279   -2730.6421   -33.346513    71225.776    2.6804002    41.452023 
  219930    106.38283   -2730.0004   -31.156475     71233.82    2.6800975    41.453583 
  219940    106.85895   -2729.0444   -27.879498    71239.304    2.6798912    41.454647 
  219950    107.25728   -2729.0786    -26.12237    71242.468    2.6797721    41.455261 
  219960    107.54384   -2728.2221   -22.440006     71243.53    2.6797322    41.455467 
  219970    107.69375   -2727.7614    -19.37353    71242.766    2.6797609    41.455319 
  219980    107.68966   -2726.8995   -15.528469    71240.467    2.6798474    41.454873 
  219990    107.52368   -2726.7031   -13.033385     71236.94    2.6799801    41.454189 
  220000    107.19055   -2726.2761   -10.300818     71232.41    2.6801505     41.45331 
  220010    106.68875   -2725.8781    -7.934805    71227.102    2.6803503     41.45228 
  220020     106.0249   -2725.6706   -6.3393067     71221.22    2.6805716    41.451139 
  220030    105.22538   -2725.0939   -4.4828885    71214.893    2.6808098    41.449912 
  220040     104.3322   -2724.8583   -3.6835764    71208.236    2.6810604     41.44862 
  220050    103.41292   -2724.8543   -3.6222693    71201.347    2.6813198    41.447283 
  220060    102.54004   -2725.0876   -4.1332073    71194.216    2.6815884      41.4459 
  220070    101.77096   -2725.4144   -4.7826853    71186.813    2.6818672    41.444463 
  220080    101.13305   -2725.3144   -4.4857984     71179.11    2.6821575    41.442968 
  220090    100.62281   -2725.5294   -4.6212657    71171.104    2.6824592    41.441414 
  220100    100.22216   -2726.1164   -5.3031646    71162.771    2.6827733    41.439797 
  220110    99.910769   -2726.3808   -5.2305601     71154.09    2.6831006    41.438112 
  220120    99.671266   -2726.6893   -5.1103594    71145.074    2.6834406    41.436361 
  220130     99.48702   -2727.6426   -6.0792389    71135.702    2.6837941    41.434542 
  220140    99.346366   -2728.2487   -6.2298443    71125.916    2.6841634    41.432642 
  220150    99.237296   -2729.0017   -6.4750811    71115.695    2.6845492    41.430657 
  220160     99.15631   -2729.6348   -6.2707045    71105.031    2.6849518    41.428586 
  220170    99.094103   -2730.0978   -5.5190325    71093.963    2.6853698    41.426436 
  220180    99.048418   -2730.1438   -3.7501711    71082.544    2.6858012    41.424218 
  220190    99.017768   -2730.6318   -2.6232086    71070.896    2.6862414    41.421955 
  220200    99.002898   -2730.8802  -0.88835706    71059.118    2.6866866    41.419667 
  220210    99.004915   -2730.7729    1.6009248    71047.366     2.687131    41.417384 
  220220    99.028598   -2731.8546    1.8401096    71035.794    2.6875688    41.415135 
  220230    99.078577    -2732.525    2.8019669    71024.453    2.6879979    41.412931 
  220240    99.157485   -2732.8713    4.2483975    71013.418    2.6884156    41.410786 
  220250      99.2725   -2732.8778     6.140491    71002.805    2.6888174    41.408723 
  220260    99.427015   -2733.2777    7.0121606    70992.752    2.6891982    41.406768 
  220270    99.618357   -2733.9711    6.9929415    70983.322    2.6895554    41.404935 
  220280    99.845179   -2734.5961    6.7511618    70974.513    2.6898893    41.403222 
  220290    100.10403   -2735.5224    5.5903896    70966.295    2.6902008    41.401624 
  220300    100.38832   -2736.4964    4.0291712    70958.589    2.6904929    41.400125 
  220310    100.68813   -2737.6961    1.8035703    70951.261    2.6907708      41.3987 
  220320    100.99071      -2738.8  -0.36154099    70944.123    2.6910415    41.397312 
  220330    101.27862   -2739.9615   -2.6254086    70936.991    2.6913121    41.395925 
  220340    101.53084    -2740.732   -3.9962175    70929.701    2.6915887    41.394507 
  220350    101.72754    -2742.092   -6.1868565    70922.114    2.6918766    41.393031 
  220360    101.84616   -2743.4637   -7.9623544    70914.083    2.6921815    41.391468 
  220370    101.86739   -2744.5006   -8.5449435    70905.478    2.6925082    41.389794 
  220380    101.77606   -2744.8932   -7.2771482    70896.256    2.6928585    41.387999 
  220390     101.5625   -2744.7878   -4.4379624      70886.5     2.693229    41.386101 
  220400    101.22846   -2744.2452  -0.21527455    70876.456    2.6936107    41.384146 
  220410    100.78086   -2743.9953    3.8606229    70866.457    2.6939908      41.3822 
  220420    100.23455   -2743.2624    9.0845153    70856.855    2.6943558    41.380331 
  220430    99.613773   -2742.4455    14.491348    70848.062    2.6946902    41.378619 
  220440    98.947187   -2741.2093    20.506905    70840.488    2.6949783    41.377144 
  220450    98.266303    -2740.472    25.169229    70834.593    2.6952026    41.375997 
  220460    97.601832   -2739.2528    30.150491    70830.788    2.6953474    41.375256 
  220470    96.980667   -2738.3022    33.857397    70829.433     2.695399    41.374992 
  220480    96.426012   -2737.7271    35.954245    70830.808    2.6953467     41.37526 
  220490     95.95926    -2736.973    37.412678    70835.075    2.6951843     41.37609 
  220500    95.593937   -2735.8583    38.508322    70842.348    2.6949076    41.377506 
  220510    95.342989   -2735.1647    37.723641    70852.683    2.6945145    41.379518 
  220520    95.216063   -2734.6086    35.613435    70866.024    2.6940072    41.382116 
  220530    95.221106     -2734.22    32.199273    70882.186     2.693393    41.385261 
  220540    95.361004   -2734.3754    26.889645     70900.88    2.6926828    41.388899 
  220550    95.638768   -2734.7874     20.41892    70921.688    2.6918928    41.392948 
  220560    96.054066    -2735.061    13.759497    70944.106    2.6910422    41.397309 
  220570    96.602956   -2734.9747    7.5663453    70967.589    2.6901517    41.401876 
  220580    97.272465   -2734.8926     1.343925    70991.628    2.6892408     41.40655 
  220590    98.039062   -2734.8971    -4.912699    71015.742    2.6883276    41.411238 
  220600    98.863789   -2735.2434   -11.583196    71039.417    2.6874317    41.415839 
  220610    99.696055   -2735.2816   -17.373145    71062.132    2.6865727    41.420253 
  220620    100.48443   -2735.1533   -22.507992    71083.394    2.6857691    41.424383 
  220630    101.18668   -2735.2415   -27.670204     71102.79    2.6850364    41.428151 
  220640    101.77774   -2735.0442   -31.828256    71119.935    2.6843891     41.43148 
  220650    102.24887   -2735.5798   -36.791734    71134.468    2.6838407    41.434302 
  220660    102.60469    -2735.785   -40.393425     71146.02    2.6834049    41.436545 
  220670    102.85498   -2735.9225   -42.987107    71154.304    2.6830925    41.438153 
  220680    103.00913   -2735.8077   -44.113733    71159.129    2.6829106     41.43909 
  220690    103.07402   -2736.1604   -45.057781    71160.368    2.6828639     41.43933 
  220700    103.05755   -2736.7061   -45.246923    71157.947    2.6829551     41.43886 
  220710    102.96736   -2737.0528   -43.925822    71151.882    2.6831839    41.437683 
  220720    102.81288   -2737.1401   -41.002751    71142.291    2.6835456    41.435821 
  220730    102.60049   -2736.9955   -36.600596    71129.414    2.6840314    41.433321 
  220740    102.33636   -2737.1116   -31.753558      71113.6    2.6846283     41.43025 
  220750    102.02721    -2737.172   -25.974311    71095.256     2.685321    41.426687 
  220760    101.67756   -2736.7263   -18.542937    71074.873     2.686091    41.422728 
  220770    101.29102   -2736.2258   -10.470054    71053.036    2.6869166    41.418485 
  220780    100.87452   -2736.3061   -3.1279428    71030.385    2.6877734    41.414084 
  220790    100.43506   -2735.8077     5.501612    71007.548    2.6886379    41.409645 
  220800    99.982123   -2735.1777     14.36061    70985.207     2.689484    41.405302 
  220810    99.527526   -2734.2349    23.550279     70964.08    2.6902848    41.401193 
  220820    99.084933   -2733.3984     32.00284    70944.899    2.6910121    41.397463 
  220830    98.669089    -2733.168    38.496929    70928.323     2.691641    41.394239 
  220840    98.295687   -2732.7997    44.192422    70914.882    2.6921512    41.391624 
  220850    97.983104   -2732.5702    48.341668    70904.999    2.6925264    41.389701 
  220860    97.745487   -2732.3518    50.981425    70899.021    2.6927534    41.388537 
  220870    97.598124   -2732.5158    51.263658    70897.151    2.6928244    41.388174 
  220880    97.551017   -2732.7038    49.796831    70899.412    2.6927386    41.388613 
  220890    97.611368   -2732.9672    46.488787    70905.693       2.6925    41.389836 
  220900    97.779397   -2733.2582    41.522626    70915.727    2.6921191    41.391788 
  220910    98.049215   -2734.0239    34.234538    70929.098    2.6916116    41.394389 
  220920    98.406761   -2735.0427    25.324121    70945.222    2.6909999    41.397526 
  220930    98.835012   -2735.3477    16.983355    70963.413      2.69031    41.401064 
  220940    99.312313   -2736.1172    7.3646847    70982.977    2.6895685    41.404868 
  220950    99.812578   -2737.1393   -2.7206489    71003.152    2.6888043     41.40879 
  220960    100.31045   -2737.6412   -11.399514    71023.139    2.6880476    41.412675 
  220970     100.7839   -2738.3632    -19.71454    71042.221    2.6873256    41.416384 
  220980    101.21601   -2738.3464    -25.54004    71059.741    2.6866631    41.419788 
  220990    101.59596   -2738.3494   -30.097163    71075.225    2.6860778    41.422796 
  221000    101.91726    -2738.408   -33.308529    71088.306    2.6855835    41.425337 
  221010    102.17898   -2737.5461   -33.248517    71098.736    2.6851895    41.427363 
  221020     102.3829   -2736.9807   -32.238737    71106.491    2.6848967    41.428869 
  221030    102.53406   -2735.7038   -28.448685    71111.667    2.6847012    41.429875 
  221040    102.63975   -2734.5074   -23.529281    71114.548    2.6845925    41.430434 
  221050     102.7112   -2733.2405   -17.388469    71115.526    2.6845556    41.430624 
  221060    102.75758   -2731.8928   -10.251442      71115.1    2.6845717    41.430541 
  221070    102.78986    -2730.537   -2.5341565     71113.88    2.6846177    41.430305 
  221080    102.81702   -2728.8982     5.995298    71112.505    2.6846696    41.430037 
  221090     102.8453    -2727.628    13.817018    71111.624    2.6847029    41.429866 
  221100    102.87786   -2725.7002    22.598596    71111.895    2.6846926    41.429919 
  221110    102.91483   -2724.4379    29.567574    71114.009    2.6846128     41.43033 
  221120    102.95493   -2722.4838    37.065331    71118.571    2.6844406    41.431215 
  221130     102.9917   -2720.7941    43.052723    71126.174    2.6841537    41.432692 
  221140    103.02063   -2719.4224    47.234053    71137.298    2.6837339    41.434852 
  221150     103.0397   -2718.5033    49.200099    71152.279    2.6831689     41.43776 
  221160    103.05087   -2717.3507    50.138128    71171.308    2.6824515    41.441454 
  221170    103.05606   -2716.6501    48.677416    71194.457    2.6815793    41.445946 
  221180    103.05622   -2715.1419    47.179654    71221.639    2.6805558     41.45122 
  221182    103.05572   -2714.8746    46.627434    71227.552    2.6803333    41.452367 
Loop time of 58.453 on 1 procs for 100000 steps with 1372 atoms

Performance: 147.811 ns/day, 0.162 hours/ns, 1710.777 timesteps/s
96.1% CPU use with 1 MPI tasks x no OpenMP threads

MPI task timing breakdown:
Section |  min time  |  avg time  |  max time  |%varavg| %total
---------------------------------------------------------------
Pair    | 49.101     | 49.101     | 49.101     |   0.0 | 84.00
Neigh   | 1.4268     | 1.4268     | 1.4268     |   0.0 |  2.44
Comm    | 1.296      | 1.296      | 1.296      |   0.0 |  2.22
Output  | 0.21821    | 0.21821    | 0.21821    |   0.0 |  0.37
Modify  | 5.685      | 5.685      | 5.685      |   0.0 |  9.73
Other   |            | 0.7259     |            |       |  1.24

Nlocal:    1372 ave 1372 max 1372 min
Histogram: 1 0 0 0 0 0 0 0 0 0
Nghost:    2071 ave 2071 max 2071 min
Histogram: 1 0 0 0 0 0 0 0 0 0
Neighs:    29435 ave 29435 max 29435 min
Histogram: 1 0 0 0 0 0 0 0 0 0

Total # of neighbors = 29435
Ave neighs/atom = 21.4541
Neighbor list builds = 916
Dangerous builds = 0
Total wall time: 0:02:25
