LAMMPS (7 Aug 2019)
Lattice spacing in x,y,z = 5 5 5
Created orthogonal box = (0 0 0) to (20 20 20)
  1 by 1 by 1 MPI processor grid
Created 256 atoms
  create_atoms CPU = 0.000323057 secs
WARNING: Using 'neigh_modify every 1 delay 0 check yes' setting during minimization (../min.cpp:168)
Neighbor list info ...
  update every 1 steps, delay 0 steps, check yes
  max neighbors/atom: 2000, page size: 100000
  master list distance cutoff = 8
  ghost atom cutoff = 8
  binsize = 4, bins = 5 5 5
  1 neighbor lists, perpetual/occasional/extra = 1 0 0
  (1) pair lj/cut, perpetual
      attributes: half, newton on
      pair build: half/bin/atomonly/newton
      stencil: half/bin/3d/newton
      bin: standard
Setting up cg style minimization ...
  Unit style    : real
  Current step  : 0
WARNING: Energy due to 1 extra global DOFs will be included in minimizer energies
Per MPI rank memory allocation (min/avg/max) = 5.508 | 5.508 | 5.508 Mbytes
Step Temp PotEng Press Volume Density Lx 
       0            0   -62.702936    42953.781         8000    4.4527949           20 
      10            0   -77.593119    42047.338     8024.024    4.4394632        20.02 
      20            0   -92.197814    41157.658    8048.0961    4.4261846        20.04 
      30            0   -106.52163    40284.436    8072.2162     4.412959        20.06 
      40            0   -120.56912    39427.372    8096.3845     4.399786        20.08 
      50            0   -134.34473    38586.169     8120.601    4.3866654         20.1 
      60            0   -147.85286    37760.541    8144.8657    4.3735969        20.12 
      70            0   -161.09785    36950.202    8169.1787    4.3605802        20.14 
      80            0   -174.08395    36154.874    8193.5401    4.3476152        20.16 
      90            0   -186.81533    35374.285    8217.9498    4.3347015        20.18 
     100            0   -199.29614    34608.166     8242.408    4.3218389         20.2 
     110            0   -211.53041    33856.254    8266.9146    4.3090271        20.22 
     120            0   -223.52215     33118.29    8291.4698    4.2962659        20.24 
     130            0   -235.27528    32394.021    8316.0736    4.2835551        20.26 
     140            0   -246.79367    31683.198     8340.726    4.2708943        20.28 
     150            0   -258.08112    30985.577     8365.427    4.2582834         20.3 
     160            0   -269.14137    30300.919    8390.1768    4.2457221        20.32 
     170            0   -279.97812    29628.987    8414.9753    4.2332102        20.34 
     180            0   -290.59497    28969.551    8439.8227    4.2207474        20.36 
     190            0   -300.99551    28322.385    8464.7189    4.2083334        20.38 
     200            0   -311.18324    27687.265     8489.664    4.1959681         20.4 
     210            0   -321.16162    27063.974    8514.6581    4.1836512        20.42 
     220            0   -330.93405    26452.298    8539.7012    4.1713824        20.44 
     230            0   -340.50388    25852.025    8564.7933    4.1591616        20.46 
     240            0    -349.8744    25262.949    8589.9346    4.1469884        20.48 
     250            0   -359.04885    24684.867     8615.125    4.1348627         20.5 
     260            0   -368.03043    24117.582    8640.3646    4.1227843        20.52 
     270            0   -376.82227    23560.896    8665.6535    4.1107528        20.54 
     280            0   -385.42746    23014.619    8690.9916    4.0987681        20.56 
     290            0   -393.84906    22478.562    8716.3791    4.0868299        20.58 
     300            0   -402.09004     21952.54     8741.816    4.0749381         20.6 
     310            0   -410.15336    21436.373    8767.3023    4.0630924        20.62 
     320            0   -418.04192    20929.881    8792.8381    4.0512925        20.64 
     330            0   -425.75857    20432.891    8818.4235    4.0395383        20.66 
     340            0   -433.30612     19945.23    8844.0584    4.0278295        20.68 
     350            0   -440.68734     19466.73     8869.743    4.0161659         20.7 
     360            0   -447.90494    18997.225    8895.4772    4.0045473        20.72 
     370            0    -454.9616    18536.554    8921.2612    3.9929734        20.74 
     380            0   -461.85997    18084.557     8947.095    3.9814442        20.76 
     390            0   -468.60263    17641.077    8972.9786    3.9699592        20.78 
     400            0   -475.19214    17205.961     8998.912    3.9585184         20.8 
     410            0   -481.63101    16779.058    9024.8954    3.9471216        20.82 
     420            0   -487.92172    16360.219    9050.9287    3.9357684        20.84 
     430            0    -494.0667      15949.3    9077.0121    3.9244587        20.86 
     440            0   -500.06834    15546.158    9103.1455    3.9131923        20.88 
     450            0   -505.92902    15150.652     9129.329     3.901969         20.9 
     460            0   -511.65104    14762.645    9155.5627    3.8907886        20.92 
     470            0    -517.2367    14382.001    9181.8466    3.8796509        20.94 
     480            0   -522.68825    14008.589    9208.1807    3.8685556        20.96 
     490            0   -528.00789    13642.278    9234.5652    3.8575026        20.98 
     500            0   -533.19781    13282.939         9261    3.8464916           21 
     510            0   -538.26016    12930.448    9287.4852    3.8355226        21.02 
     520            0   -543.19704    12584.681    9314.0209    3.8245952        21.04 
     530            0   -548.01054    12245.517     9340.607    3.8137092        21.06 
     540            0   -552.70269    11912.837    9367.2437    3.8028646        21.08 
     550            0   -557.27552    11586.525     9393.931     3.792061         21.1 
     560            0   -561.73101    11266.465    9420.6689    3.7812983        21.12 
     570            0    -566.0711    10952.546    9447.4575    3.7705763        21.14 
     580            0   -570.29773    10644.656    9474.2969    3.7598948        21.16 
     590            0   -574.41277    10342.688     9501.187    3.7492535        21.18 
     600            0   -578.41809    10046.534     9528.128    3.7386525         21.2 
     610            0   -582.31552    9756.0905    9555.1198    3.7280913        21.22 
     620            0   -586.10687    9471.2543    9582.1626    3.7175699        21.24 
     630            0    -589.7939    9191.9245    9609.2564     3.707088        21.26 
     640            0   -593.37838    8918.0022    9636.4012    3.6966455        21.28 
     650            0   -596.86201    8649.3899     9663.597    3.6862422         21.3 
     660            0   -600.24649    8385.9921     9690.844    3.6758779        21.32 
     670            0   -603.53348    8127.7151    9718.1421    3.6655524        21.34 
     680            0   -606.72463    7874.4666    9745.4915    3.6552655        21.36 
     690            0   -609.82156    7626.1562    9772.8921    3.6450171        21.38 
     700            0   -612.82584    7382.6951     9800.344     3.634807         21.4 
     710            0   -615.73905     7143.996    9827.8473     3.624635        21.42 
     720            0   -618.56272    6909.9731     9855.402    3.6145009        21.44 
     730            0   -621.29837    6680.5424    9883.0081    3.6044045        21.46 
     740            0    -623.9475    6455.6211    9910.6658    3.5943457        21.48 
     750            0   -626.51157    6235.1282     9938.375    3.5843243         21.5 
     760            0   -628.99203    6018.9839    9966.1358    3.5743401        21.52 
     770            0    -631.3903    5807.1099    9993.9483     3.564393        21.54 
     780            0   -633.70779    5599.4293    10021.812    3.5544827        21.56 
     790            0   -635.94586    5395.8667    10049.728    3.5446092        21.58 
     800            0   -638.10589    5196.3478    10077.696    3.5347722         21.6 
     810            0   -640.18921    5000.7998    10105.716    3.5249715        21.62 
     820            0   -642.19712    4809.1513    10133.787     3.515207        21.64 
     830            0   -644.13094    4621.3319     10161.91    3.5054786        21.66 
     840            0   -645.99193    4437.2727    10190.086     3.495786        21.68 
     850            0   -647.78135    4256.9058    10218.313    3.4861292         21.7 
     860            0   -649.50043    4080.1648    10246.592    3.4765079        21.72 
     870            0   -651.15039    3906.9842    10274.924    3.4669219        21.74 
     880            0   -652.73242    3737.2998    10303.308    3.4573712        21.76 
     890            0   -654.24772    3571.0487    10331.744    3.4478555        21.78 
     900            0   -655.69743    3408.1688    10360.232    3.4383747         21.8 
     910            0   -657.08269    3248.5993    10388.773    3.4289286        21.82 
     920            0   -658.40464    3092.2805    10417.366    3.4195171        21.84 
     930            0   -659.66437    2939.1536    10446.011      3.41014        21.86 
     940            0   -660.86299    2789.1611    10474.709    3.4007971        21.88 
     950            0   -662.00155    2642.2463    10503.459    3.3914884         21.9 
     960            0   -663.08112    2498.3536    10532.262    3.3822136        21.92 
     970            0   -664.10273    2357.4284    10561.117    3.3729726        21.94 
     980            0   -665.06741     2219.417    10590.026    3.3637652        21.96 
     990            0   -665.97616    2084.2667    10618.986    3.3545913        21.98 
    1000            0   -666.82998    1951.9257        10648    3.3454507           22 
    1010            0   -667.62984    1822.3433    10677.066    3.3363433        22.02 
    1020            0    -668.3767    1695.4695    10706.186     3.327269        22.04 
    1030            0    -669.0715    1571.2551    10735.358    3.3182275        22.06 
    1040            0   -669.71518    1449.6521    10764.583    3.3092187        22.08 
    1050            0   -670.30866     1330.613    10793.861    3.3002425         22.1 
    1060            0   -670.85283    1214.0915    10823.192    3.2912988        22.12 
    1070            0   -671.34858    1100.0417    10852.576    3.2823873        22.14 
    1080            0   -671.79679    988.41895    10882.014     3.273508        22.16 
    1090            0   -672.19832    879.17906    10911.504    3.2646607        22.18 
    1100            0   -672.55401    772.27878    10941.048    3.2558453         22.2 
    1110            0   -672.86469    667.67558    10970.645    3.2470615        22.22 
    1120            0   -673.13119    565.32769    11000.295    3.2383093        22.24 
    1130            0   -673.35432    465.19409    11029.999    3.2295886        22.26 
    1140            0   -673.53486    367.23447    11059.756    3.2208991        22.28 
    1150            0    -673.6736    271.40923    11089.567    3.2122408         22.3 
    1160            0   -673.77132     177.6795    11119.431    3.2036134        22.32 
    1170            0   -673.82877    86.007055    11149.349     3.195017        22.34 
    1180            0   -673.84672 -0.0020174359    11178.088    3.1868025    22.359178 
    1182            0   -673.84672 -2.5929913e-11    11178.087    3.1868027    22.359178 
Loop time of 0.231914 on 1 procs for 1182 steps with 256 atoms

98.7% CPU use with 1 MPI tasks x no OpenMP threads

Minimization stats:
  Stopping criterion = force tolerance
  Energy initial, next-to-last, final = 
        -62.7029356653     -673.846720363     -673.846720363
  Force two-norm initial, final = 15034.5 1.38502e-11
  Force max component initial, final = 15034.5 1.13433e-11
  Final line search alpha, max atom move = 1 1.13433e-11
  Iterations, force evaluations = 1182 1185

MPI task timing breakdown:
Section |  min time  |  avg time  |  max time  |%varavg| %total
---------------------------------------------------------------
Pair    | 0.18871    | 0.18871    | 0.18871    |   0.0 | 81.37
Neigh   | 0.0021129  | 0.0021129  | 0.0021129  |   0.0 |  0.91
Comm    | 0.0066323  | 0.0066323  | 0.0066323  |   0.0 |  2.86
Output  | 0.00083017 | 0.00083017 | 0.00083017 |   0.0 |  0.36
Modify  | 0          | 0          | 0          |   0.0 |  0.00
Other   |            | 0.03363    |            |       | 14.50

Nlocal:    256 ave 256 max 256 min
Histogram: 1 0 0 0 0 0 0 0 0 0
Nghost:    843 ave 843 max 843 min
Histogram: 1 0 0 0 0 0 0 0 0 0
Neighs:    6912 ave 6912 max 6912 min
Histogram: 1 0 0 0 0 0 0 0 0 0

Total # of neighbors = 6912
Ave neighs/atom = 27
Neighbor list builds = 8
Dangerous builds = 0
Setting up Verlet run ...
  Unit style    : real
  Current step  : 1182
  Time step     : 1
Per MPI rank memory allocation (min/avg/max) = 4.383 | 4.383 | 4.383 Mbytes
Step Temp PotEng Press Volume Density Lx 
    1182            0   -673.84672 -2.5929913e-11    11178.087    3.1868027    22.359178 
    1190 1.3513782e-26   -673.84672 -2.7225971e-11    11178.087    3.1868027    22.359178 
    1200 6.8299857e-26   -673.84672 2.1774205e-11    11178.087    3.1868027    22.359178 
    1210 1.6627635e-25   -673.84672 2.1774205e-11    11178.087    3.1868027    22.359178 
    1220 3.1103243e-25   -673.84672 2.1774205e-11    11178.087    3.1868027    22.359178 
    1230 5.0321496e-25   -673.84672 2.1774205e-11    11178.087    3.1868027    22.359178 
    1240 7.4466221e-25   -673.84672 2.5092358e-11    11178.087    3.1868027    22.359178 
    1250 1.0326783e-24   -673.84672 -3.0250997e-11    11178.087    3.1868027    22.359178 
    1260 1.3652829e-24   -673.84672 -2.3008063e-11    11178.087    3.1868027    22.359178 
    1270 1.7523453e-24   -673.84672 -3.2862921e-11    11178.087    3.1868027    22.359178 
    1280 2.1923808e-24   -673.84672 -2.573457e-11    11178.087    3.1868027    22.359178 
    1290 2.6896956e-24   -673.84672 1.0146169e-11    11178.087    3.1868027    22.359178 
    1300 3.251815e-24   -673.84672 1.4703231e-11    11178.087    3.1868027    22.359178 
    1310  3.87728e-24   -673.84672 2.3924617e-11    11178.087    3.1868027    22.359178 
    1320 4.5715952e-24   -673.84672 2.5594164e-11    11178.087    3.1868027    22.359178 
    1330 5.3346607e-24   -673.84672 1.7801468e-11    11178.087    3.1868027    22.359178 
    1340 6.1666339e-24   -673.84672 2.8328504e-11    11178.087    3.1868027    22.359178 
    1350 7.0470877e-24   -673.84672 -2.2679579e-11    11178.087    3.1868027    22.359178 
    1360 7.9849847e-24   -673.84672 -2.4501507e-11    11178.087    3.1868027    22.359178 
    1370 8.9879306e-24   -673.84672 -2.9285636e-11    11178.087    3.1868027    22.359178 
    1380 1.0056464e-23   -673.84672 -3.1358183e-11    11178.087    3.1868027    22.359178 
    1390 1.1188759e-23   -673.84672 2.4427899e-11    11178.087    3.1868027    22.359178 
    1400 1.2388172e-23   -673.84672 2.1056909e-11    11178.087    3.1868027    22.359178 
    1410 1.3661658e-23   -673.84672 1.8394192e-11    11178.087    3.1868027    22.359178 
    1420 1.5016086e-23   -673.84672 2.7828513e-11    11178.087    3.1868027    22.359178 
    1430 1.6453486e-23   -673.84672 2.453011e-11    11178.087    3.1868027    22.359178 
    1440 1.7969664e-23   -673.84672 -2.6954864e-11    11178.087    3.1868027    22.359178 
    1450 1.952927e-23   -673.84672 -2.9141484e-11    11178.087    3.1868027    22.359178 
    1460 2.1173704e-23   -673.84672 -3.1632752e-11    11178.087    3.1868027    22.359178 
    1470 2.2919108e-23   -673.84672 -2.3054259e-11    11178.087    3.1868027    22.359178 
    1480 2.4777332e-23   -673.84672 -7.0221668e-12    11178.087    3.1868027    22.359178 
    1490 2.6758622e-23   -673.84672 3.4083669e-11    11178.087    3.1868027    22.359178 
    1500 2.8871504e-23   -673.84672 4.4467234e-11    11178.087    3.1868027    22.359178 
    1510 3.1110345e-23   -673.84672 4.0802266e-11    11178.087    3.1868027    22.359178 
    1520 3.3405857e-23   -673.84672 -2.4695601e-11    11178.087    3.1868027    22.359178 
    1530 3.5839919e-23   -673.84672 -2.9415486e-11    11178.087    3.1868027    22.359178 
    1540 3.8445368e-23   -673.84672 -3.0551672e-11    11178.087    3.1868027    22.359178 
    1550 4.1236046e-23   -673.84672 -2.2110918e-11    11178.087    3.1868027    22.359178 
    1560 4.4231573e-23   -673.84672 2.1470352e-11    11178.087    3.1868027    22.359178 
    1570 4.7438222e-23   -673.84672 1.818642e-11    11178.087    3.1868027    22.359178 
    1580 5.0897191e-23   -673.84672 2.7008041e-11    11178.087    3.1868027    22.359178 
    1590 5.4629843e-23   -673.84672 2.443102e-11    11178.087    3.1868027    22.359178 
    1600 5.8664734e-23   -673.84672 2.1355598e-11    11178.087    3.1868027    22.359178 
    1610 6.302855e-23   -673.84672 -3.1288491e-11    11178.087    3.1868027    22.359178 
    1620 6.767074e-23   -673.84672 -3.1708006e-11    11178.087    3.1868027    22.359178 
    1630 7.2714883e-23   -673.84672 -3.3021942e-11    11178.087    3.1868027    22.359178 
    1640 7.8209543e-23   -673.84672 -2.6437508e-11    11178.087    3.1868027    22.359178 
    1650 8.4222706e-23   -673.84672 -4.0011135e-12    11178.087    3.1868027    22.359178 
    1660 9.0450598e-23   -673.84672 1.5412298e-11    11178.087    3.1868027    22.359178 
    1670 9.6557829e-23   -673.84672 2.4251739e-11    11178.087    3.1868027    22.359178 
    1680 1.025609e-22   -673.84672 1.6912325e-11    11178.087    3.1868027    22.359178 
    1690 1.0843761e-22   -673.84672 1.6971972e-11    11178.087    3.1868027    22.359178 
    1700 1.1427457e-22   -673.84672 1.6553252e-11    11178.087    3.1868027    22.359178 
    1710 1.2025236e-22   -673.84672 -1.1483657e-11    11178.087    3.1868027    22.359178 
    1720 1.2646319e-22   -673.84672 -1.2491413e-11    11178.087    3.1868027    22.359178 
    1730 1.331161e-22   -673.84672 -1.332857e-11    11178.087    3.1868027    22.359178 
    1740 1.4021256e-22   -673.84672 -1.4477356e-11    11178.087    3.1868027    22.359178 
    1750 1.4812726e-22   -673.84672 -1.1344103e-11    11178.087    3.1868027    22.359178 
    1760 1.5690685e-22   -673.84672 -6.0993131e-12    11178.087    3.1868027    22.359178 
    1770 1.6650078e-22   -673.84672 -1.1795399e-11    11178.087    3.1868027    22.359178 
    1780 1.7695736e-22   -673.84672 -1.5256909e-11    11178.087    3.1868027    22.359178 
    1790 1.8823901e-22   -673.84672 -1.247887e-11    11178.087    3.1868027    22.359178 
    1800 2.0016281e-22   -673.84672 -5.5636255e-12    11178.087    3.1868027    22.359178 
    1810 2.1265886e-22   -673.84672 5.684849e-12    11178.087    3.1868027    22.359178 
    1820 2.2570331e-22   -673.84672 9.7138848e-12    11178.087    3.1868027    22.359178 
    1830 2.3936376e-22   -673.84672 3.8228537e-12    11178.087    3.1868027    22.359178 
    1840 2.5365457e-22   -673.84672 2.4470009e-12    11178.087    3.1868027    22.359178 
    1850 2.686019e-22   -673.84672 2.3701579e-12    11178.087    3.1868027    22.359178 
    1860 2.8455168e-22   -673.84672 1.1455281e-11    11178.087    3.1868027    22.359178 
    1870 3.0162605e-22   -673.84672 5.513286e-12    11178.087    3.1868027    22.359178 
    1880 3.1992095e-22   -673.84672 5.7569816e-12    11178.087    3.1868027    22.359178 
    1890 3.3950166e-22   -673.84672 9.1814321e-12    11178.087    3.1868027    22.359178 
    1900 3.6043943e-22   -673.84672  7.37443e-12    11178.087    3.1868027    22.359178 
    1910 3.817149e-22   -673.84672 4.1576939e-12    11178.087    3.1868027    22.359178 
    1920 4.0260381e-22   -673.84672 3.1615159e-12    11178.087    3.1868027    22.359178 
    1930 4.2271119e-22   -673.84672 4.3892444e-12    11178.087    3.1868027    22.359178 
    1940 4.4208033e-22   -673.84672 3.537672e-12    11178.087    3.1868027    22.359178 
    1950 4.607853e-22   -673.84672 8.4124347e-12    11178.087    3.1868027    22.359178 
    1960 4.7882563e-22   -673.84672 8.0531341e-12    11178.087    3.1868027    22.359178 
    1970 4.9599931e-22   -673.84672 7.2265896e-12    11178.087    3.1868027    22.359178 
    1980 5.1219009e-22   -673.84672 5.7798528e-12    11178.087    3.1868027    22.359178 
    1990 5.2772683e-22   -673.84672 4.4370868e-12    11178.087    3.1868027    22.359178 
    2000 5.4174578e-22   -673.84672 -9.1367111e-12    11178.087    3.1868027    22.359178 
    2010 5.5224678e-22   -673.84672 -8.2482495e-12    11178.087    3.1868027    22.359178 
    2020 5.5893813e-22   -673.84672 -1.1227192e-11    11178.087    3.1868027    22.359178 
    2030 5.6230422e-22   -673.84672 -8.8494295e-12    11178.087    3.1868027    22.359178 
    2040 5.6246382e-22   -673.84672 -1.036007e-11    11178.087    3.1868027    22.359178 
    2050 5.5963212e-22   -673.84672 -1.2009924e-11    11178.087    3.1868027    22.359178 
    2060 5.5388701e-22   -673.84672 -1.1492113e-11    11178.087    3.1868027    22.359178 
    2070 5.4642677e-22   -673.84672 -9.7315916e-12    11178.087    3.1868027    22.359178 
    2080 5.3889971e-22   -673.84672 -1.0941613e-11    11178.087    3.1868027    22.359178 
    2090 5.332693e-22   -673.84672 -1.0980035e-11    11178.087    3.1868027    22.359178 
    2100 5.315933e-22   -673.84672 5.1918394e-12    11178.087    3.1868027    22.359178 
    2110 5.3431492e-22   -673.84672 4.5691501e-12    11178.087    3.1868027    22.359178 
    2120 5.4294424e-22   -673.84672 5.4913795e-12    11178.087    3.1868027    22.359178 
    2130 5.5829186e-22   -673.84672 5.3658995e-12    11178.087    3.1868027    22.359178 
    2140 5.801106e-22   -673.84672 5.0534198e-12    11178.087    3.1868027    22.359178 
    2150 6.0823947e-22   -673.84672  5.85942e-12    11178.087    3.1868027    22.359178 
    2160 6.4250985e-22   -673.84672  5.33758e-12    11178.087    3.1868027    22.359178 
    2170 6.8257028e-22   -673.84672 5.9884753e-12    11178.087    3.1868027    22.359178 
    2180 7.283452e-22   -673.84672 5.0203898e-12    11178.087    3.1868027    22.359178 
    2190 7.7964284e-22   -673.84672 5.6409793e-12    11178.087    3.1868027    22.359178 
    2200 8.3573197e-22   -673.84672 5.0672107e-12    11178.087    3.1868027    22.359178 
    2210 8.9579829e-22   -673.84672 4.2860682e-12    11178.087    3.1868027    22.359178 
    2220 9.5926515e-22   -673.84672 5.2082976e-12    11178.087    3.1868027    22.359178 
    2230 1.0259373e-21   -673.84672 5.1435429e-12    11178.087    3.1868027    22.359178 
    2240 1.0956361e-21   -673.84672  4.20355e-12    11178.087    3.1868027    22.359178 
    2250 1.1673441e-21   -673.84672 6.1603221e-12    11178.087    3.1868027    22.359178 
    2260 1.2385157e-21   -673.84672 5.287127e-12    11178.087    3.1868027    22.359178 
    2270 1.3085754e-21   -673.84672 5.9498268e-12    11178.087    3.1868027    22.359178 
    2280 1.3774875e-21   -673.84672 5.3796904e-12    11178.087    3.1868027    22.359178 
    2290 1.4449653e-21   -673.84672 -1.0471191e-11    11178.087    3.1868027    22.359178 
    2300 1.5111995e-21   -673.84672 -1.1028842e-11    11178.087    3.1868027    22.359178 
    2310 1.5761225e-21   -673.84672 -9.5696198e-12    11178.087    3.1868027    22.359178 
    2320 1.6395976e-21   -673.84672 -1.0157009e-11    11178.087    3.1868027    22.359178 
    2330 1.7023401e-21   -673.84672 -1.0588385e-11    11178.087    3.1868027    22.359178 
    2340 1.7672369e-21   -673.84672 -1.0317335e-11    11178.087    3.1868027    22.359178 
    2350 1.8347131e-21   -673.84672 -9.8604767e-12    11178.087    3.1868027    22.359178 
    2360 1.9037293e-21   -673.84672 -1.0941386e-11    11178.087    3.1868027    22.359178 
    2370 1.9751674e-21   -673.84672 -1.1177193e-11    11178.087    3.1868027    22.359178 
    2380 2.0499179e-21   -673.84672 -1.0104456e-11    11178.087    3.1868027    22.359178 
    2390 2.1299241e-21   -673.84672 2.0660265e-11    11178.087    3.1868027    22.359178 
    2400  2.21485e-21   -673.84672 2.1300661e-11    11178.087    3.1868027    22.359178 
    2410 2.3080655e-21   -673.84672 2.0159367e-11    11178.087    3.1868027    22.359178 
    2420 2.4088694e-21   -673.84672 2.034824e-11    11178.087    3.1868027    22.359178 
    2430 2.5170549e-21   -673.84672 2.207891e-11    11178.087    3.1868027    22.359178 
    2440 2.6332848e-21   -673.84672 -2.7157471e-11    11178.087    3.1868027    22.359178 
    2450 2.7583806e-21   -673.84672 -2.5105241e-11    11178.087    3.1868027    22.359178 
    2460 2.8931999e-21   -673.84672 -2.6417133e-11    11178.087    3.1868027    22.359178 
    2470 3.035909e-21   -673.84672 -2.5452113e-11    11178.087    3.1868027    22.359178 
    2480 3.1859541e-21   -673.84672 -1.0105932e-11    11178.087    3.1868027    22.359178 
    2490 3.342052e-21   -673.84672 2.1006002e-11    11178.087    3.1868027    22.359178 
    2500 3.5019898e-21   -673.84672 2.1063152e-11    11178.087    3.1868027    22.359178 
    2510 3.6662078e-21   -673.84672 2.1486696e-11    11178.087    3.1868027    22.359178 
    2520 3.8360358e-21   -673.84672 2.1214625e-11    11178.087    3.1868027    22.359178 
    2530 4.0106161e-21   -673.84672 2.0546079e-11    11178.087    3.1868027    22.359178 
    2540 4.1887886e-21   -673.84672 -2.6141656e-11    11178.087    3.1868027    22.359178 
    2550 4.3690024e-21   -673.84672 -2.5746204e-11    11178.087    3.1868027    22.359178 
    2560 4.553136e-21   -673.84672 -2.6567357e-11    11178.087    3.1868027    22.359178 
    2570 4.7417578e-21   -673.84672 -2.6081953e-11    11178.087    3.1868027    22.359178 
    2580 4.9344463e-21   -673.84672 2.0980634e-11    11178.087    3.1868027    22.359178 
    2590 5.1313344e-21   -673.84672 2.1517797e-11    11178.087    3.1868027    22.359178 
    2600 5.3268747e-21   -673.84672 2.1314963e-11    11178.087    3.1868027    22.359178 
    2610 5.5164282e-21   -673.84672 2.0635692e-11    11178.087    3.1868027    22.359178 
    2620 5.699992e-21   -673.84672 2.0760831e-11    11178.087    3.1868027    22.359178 
    2630 5.8777833e-21   -673.84672 -2.5692687e-11    11178.087    3.1868027    22.359178 
    2640 6.0501595e-21   -673.84672 -2.5431511e-11    11178.087    3.1868027    22.359178 
    2650 6.2191855e-21   -673.84672 -2.5694049e-11    11178.087    3.1868027    22.359178 
    2660 6.3864415e-21   -673.84672 -2.6383763e-11    11178.087    3.1868027    22.359178 
    2670 6.5537756e-21   -673.84672 -2.6045007e-11    11178.087    3.1868027    22.359178 
    2680 6.7224592e-21   -673.84672 3.6237089e-11    11178.087    3.1868027    22.359178 
    2690 6.8927619e-21   -673.84672 3.5664001e-11    11178.087    3.1868027    22.359178 
    2700 7.0659799e-21   -673.84672 3.6406666e-11    11178.087    3.1868027    22.359178 
    2710 7.2444813e-21   -673.84672 -4.1752021e-11    11178.087    3.1868027    22.359178 
    2720 7.4329342e-21   -673.84672 -4.1168434e-11    11178.087    3.1868027    22.359178 
    2730 7.6367843e-21   -673.84672 -4.1483184e-11    11178.087    3.1868027    22.359178 
    2740 7.8620458e-21   -673.84672 5.3408092e-11    11178.087    3.1868027    22.359178 
    2750 8.1144924e-21   -673.84672 5.2038482e-11    11178.087    3.1868027    22.359178 
    2760 8.4048879e-21   -673.84672  5.95851e-12    11178.087    3.1868027    22.359178 
    2770 8.7390406e-21   -673.84672 -5.7574866e-11    11178.087    3.1868027    22.359178 
    2780 9.1293111e-21   -673.84672 -5.7673956e-11    11178.087    3.1868027    22.359178 
    2790 9.5809492e-21   -673.84672 5.2484274e-11    11178.087    3.1868027    22.359178 
    2800 1.0101289e-20   -673.84672 5.3345948e-11    11178.087    3.1868027    22.359178 
    2810 1.0701924e-20   -673.84672 3.6956428e-11    11178.087    3.1868027    22.359178 
    2820 1.1390918e-20   -673.84672 -5.7339684e-11    11178.087    3.1868027    22.359178 
    2830 1.2176732e-20   -673.84672 -5.7443825e-11    11178.087    3.1868027    22.359178 
    2840 1.3068215e-20   -673.84672 3.7105233e-11    11178.087    3.1868027    22.359178 
    2850 1.4065877e-20   -673.84672 5.2652715e-11    11178.087    3.1868027    22.359178 
    2860 1.5172429e-20   -673.84672 5.2879045e-11    11178.087    3.1868027    22.359178 
    2870 1.6391927e-20   -673.84672 -5.8387847e-11    11178.087    3.1868027    22.359178 
    2880 1.7720009e-20   -673.84672 -5.8271731e-11    11178.087    3.1868027    22.359178 
    2890 1.9151604e-20   -673.84672 4.8264663e-12    11178.087    3.1868027    22.359178 
    2900 2.0684526e-20   -673.84672 6.8253772e-11    11178.087    3.1868027    22.359178 
    2910 2.2313881e-20   -673.84672 5.2137232e-11    11178.087    3.1868027    22.359178 
    2920 2.4026665e-20   -673.84672 -7.3367747e-11    11178.087    3.1868027    22.359178 
    2930 2.5806264e-20   -673.84672 -7.3103166e-11    11178.087    3.1868027    22.359178 
    2940 2.7637123e-20   -673.84672 5.3743557e-11    11178.087    3.1868027    22.359178 
    2950 2.9498977e-20   -673.84672 6.789135e-11    11178.087    3.1868027    22.359178 
    2960 3.137279e-20   -673.84672 5.7601598e-12    11178.087    3.1868027    22.359178 
    2970 3.3238008e-20   -673.84672 -7.3083019e-11    11178.087    3.1868027    22.359178 
    2980 3.5066555e-20   -673.84672 -5.775795e-11    11178.087    3.1868027    22.359178 
    2990 3.6833748e-20   -673.84672 8.4594315e-11    11178.087    3.1868027    22.359178 
    3000 3.8515194e-20   -673.84672 8.4168955e-11    11178.087    3.1868027    22.359178 
    3010 4.0084735e-20   -673.84672 -5.7981896e-11    11178.087    3.1868027    22.359178 
    3020 4.1512195e-20   -673.84672 -8.9330204e-11    11178.087    3.1868027    22.359178 
    3030 4.2774935e-20   -673.84672 6.5694516e-12    11178.087    3.1868027    22.359178 
    3040 4.3868699e-20   -673.84672 9.9896513e-11    11178.087    3.1868027    22.359178 
    3050 4.4788184e-20   -673.84672 3.6283626e-11    11178.087    3.1868027    22.359178 
    3060 4.5536593e-20   -673.84672 -1.0506174e-10    11178.087    3.1868027    22.359178 
    3070 4.612593e-20   -673.84672 -8.991765e-11    11178.087    3.1868027    22.359178 
    3080 4.6577803e-20   -673.84672 6.8617329e-11    11178.087    3.1868027    22.359178 
    3090 4.692651e-20   -673.84672 1.1569694e-10    11178.087    3.1868027    22.359178 
    3100 4.7225023e-20   -673.84672 -9.4700188e-12    11178.087    3.1868027    22.359178 
    3110 4.7530665e-20   -673.84672 -1.2139757e-10    11178.087    3.1868027    22.359178 
    3120 4.7907875e-20   -673.84672 -5.6803542e-11    11178.087    3.1868027    22.359178 
    3130 4.8440741e-20   -673.84672  1.00241e-10    11178.087    3.1868027    22.359178 
    3140 4.9225636e-20   -673.84672 1.3120248e-10    11178.087    3.1868027    22.359178 
    3150 5.0366051e-20   -673.84672 -2.582736e-11    11178.087    3.1868027    22.359178 
    3160 5.1976772e-20   -673.84672 -1.3657451e-10    11178.087    3.1868027    22.359178 
    3170 5.4176207e-20   -673.84672 -5.7340251e-11    11178.087    3.1868027    22.359178 
    3180 5.7090937e-20   -673.84672 1.0061273e-10    11178.087    3.1868027    22.359178 
    3190 6.0851634e-20   -673.84672 1.3064018e-10    11178.087    3.1868027    22.359178 
    3200 6.5584183e-20   -673.84672 -2.6577913e-11    11178.087    3.1868027    22.359178 
    3210 7.1412706e-20   -673.84672 -1.2044095e-10    11178.087    3.1868027    22.359178 
    3220 7.8437105e-20   -673.84672 -4.1836184e-11    11178.087    3.1868027    22.359178 
    3230 8.6746343e-20   -673.84672 1.1605522e-10    11178.087    3.1868027    22.359178 
    3240 9.6409337e-20   -673.84672 1.007268e-10    11178.087    3.1868027    22.359178 
    3250 1.0747672e-19   -673.84672 -5.7871228e-11    11178.087    3.1868027    22.359178 
    3260 1.1997099e-19   -673.84672 -1.2060235e-10    11178.087    3.1868027    22.359178 
    3270 1.3388128e-19   -673.84672 5.5497783e-12    11178.087    3.1868027    22.359178 
    3280 1.4916251e-19   -673.84672 1.1542924e-10    11178.087    3.1868027    22.359178 
    3290 1.6574135e-19   -673.84672 5.2576724e-11    11178.087    3.1868027    22.359178 
    3300 1.8350953e-19   -673.84672 -1.0467355e-10    11178.087    3.1868027    22.359178 
    3310 2.0232859e-19   -673.84672 -1.042546e-10    11178.087    3.1868027    22.359178 
    3320 2.2201904e-19   -673.84672 5.3072174e-11    11178.087    3.1868027    22.359178 
    3330 2.4236487e-19   -673.84672 1.1586578e-10    11178.087    3.1868027    22.359178 
    3340 2.6313559e-19   -673.84672 5.2467767e-12    11178.087    3.1868027    22.359178 
    3350 2.8408329e-19   -673.84672 -1.1996337e-10    11178.087    3.1868027    22.359178 
    3360 3.0494965e-19   -673.84672 -5.7642969e-11    11178.087    3.1868027    22.359178 
    3370 3.2545497e-19   -673.84672 9.9697482e-11    11178.087    3.1868027    22.359178 
    3380 3.4533406e-19   -673.84672 1.1538089e-10    11178.087    3.1868027    22.359178 
    3390 3.6434682e-19   -673.84672 -4.2542867e-11    11178.087    3.1868027    22.359178 
    3400 3.8228498e-19   -673.84672 -1.2098078e-10    11178.087    3.1868027    22.359178 
    3410 3.9899158e-19   -673.84672 -1.0809095e-11    11178.087    3.1868027    22.359178 
    3420 4.1433306e-19   -673.84672 1.1575233e-10    11178.087    3.1868027    22.359178 
    3430 4.2825612e-19   -673.84672  6.82292e-11    11178.087    3.1868027    22.359178 
    3440 4.4079313e-19   -673.84672 -8.9165791e-11    11178.087    3.1868027    22.359178 
    3450 4.5206645e-19   -673.84672 -1.2107918e-10    11178.087    3.1868027    22.359178 
    3460 4.6228636e-19   -673.84672 2.1784989e-11    11178.087    3.1868027    22.359178 
    3470 4.7173439e-19   -673.84672 1.3222057e-10    11178.087    3.1868027    22.359178 
    3480 4.8081884e-19   -673.84672 5.3126431e-11    11178.087    3.1868027    22.359178 
    3490 4.9005443e-19   -673.84672 -1.0490039e-10    11178.087    3.1868027    22.359178 
    3500 5.0005801e-19   -673.84672 -1.3621232e-10    11178.087    3.1868027    22.359178 
    3510 5.1152594e-19   -673.84672 2.1507867e-11    11178.087    3.1868027    22.359178 
    3520 5.2521404e-19   -673.84672 1.4702499e-10    11178.087    3.1868027    22.359178 
    3530 5.4196608e-19   -673.84672 6.8595765e-11    11178.087    3.1868027    22.359178 
    3540 5.6267078e-19   -673.84672 -8.9555113e-11    11178.087    3.1868027    22.359178 
    3550 5.8823413e-19   -673.84672 -1.5219889e-10    11178.087    3.1868027    22.359178 
    3560 6.1955539e-19   -673.84672 -1.0075624e-11    11178.087    3.1868027    22.359178 
    3570 6.5747297e-19   -673.84672 1.4729547e-10    11178.087    3.1868027    22.359178 
    3580 7.0278069e-19   -673.84672 1.1592935e-10    11178.087    3.1868027    22.359178 
    3590 7.5617388e-19   -673.84672 -4.1924887e-11    11178.087    3.1868027    22.359178 
    3600 8.1820309e-19   -673.84672 -1.6754411e-10    11178.087    3.1868027    22.359178 
    3610 8.8926387e-19   -673.84672 -7.417959e-11    11178.087    3.1868027    22.359178 
    3620 9.6954916e-19   -673.84672 8.3927646e-11    11178.087    3.1868027    22.359178 
    3630 1.0590286e-18   -673.84672 1.6314795e-10    11178.087    3.1868027    22.359178 
    3640 1.157431e-18   -673.84672 3.6076766e-11    11178.087    3.1868027    22.359178 
    3650 1.2642169e-18   -673.84672 -1.2053822e-10    11178.087    3.1868027    22.359178 
    3660 1.3785878e-18   -673.84672 -1.519771e-10    11178.087    3.1868027    22.359178 
    3670 1.4994841e-18   -673.84672 5.0723231e-12    11178.087    3.1868027    22.359178 
    3680 1.6255853e-18   -673.84672 1.6272786e-10    11178.087    3.1868027    22.359178 
    3690 1.7553444e-18   -673.84672 1.1568134e-10    11178.087    3.1868027    22.359178 
    3700 1.8870039e-18   -673.84672 -4.168726e-11    11178.087    3.1868027    22.359178 
    3710 2.0186517e-18   -673.84672 -1.6697578e-10    11178.087    3.1868027    22.359178 
    3720 2.1483079e-18   -673.84672 -8.8887981e-11    11178.087    3.1868027    22.359178 
    3730 2.2739303e-18   -673.84672 6.7539321e-11    11178.087    3.1868027    22.359178 
    3740 2.393548e-18   -673.84672 1.783821e-10    11178.087    3.1868027    22.359178 
    3750 2.505295e-18   -673.84672 6.8573694e-11    11178.087    3.1868027    22.359178 
    3760 2.6075337e-18   -673.84672 -8.8312168e-11    11178.087    3.1868027    22.359178 
    3770 2.6989466e-18   -673.84672 -1.8340963e-10    11178.087    3.1868027    22.359178 
    3780 2.7786703e-18   -673.84672 -5.788467e-11    11178.087    3.1868027    22.359178 
    3790 2.8462922e-18   -673.84672 1.0004504e-10    11178.087    3.1868027    22.359178 
    3800 2.9020352e-18   -673.84672 1.9465772e-10    11178.087    3.1868027    22.359178 
    3810 2.9467577e-18   -673.84672 5.2361527e-11    11178.087    3.1868027    22.359178 
    3820 2.9820785e-18   -673.84672 -1.0534657e-10    11178.087    3.1868027    22.359178 
    3830 3.0103998e-18   -673.84672 -1.9984126e-10    11178.087    3.1868027    22.359178 
    3840 3.0349738e-18   -673.84672 -5.7509535e-11    11178.087    3.1868027    22.359178 
    3850 3.0598037e-18   -673.84672 9.9365829e-11    11178.087    3.1868027    22.359178 
    3860 3.0897347e-18   -673.84672 1.9465755e-10    11178.087    3.1868027    22.359178 
    3870 3.1302867e-18   -673.84672 6.8108155e-11    11178.087    3.1868027    22.359178 
    3880 3.1876354e-18   -673.84672 -8.8715677e-11    11178.087    3.1868027    22.359178 
    3890 3.2684677e-18   -673.84672 -1.9974398e-10    11178.087    3.1868027    22.359178 
    3900 3.3798454e-18   -673.84672 -7.3432434e-11    11178.087    3.1868027    22.359178 
    3910 3.528969e-18   -673.84672 8.3769314e-11    11178.087    3.1868027    22.359178 
    3920 3.7230139e-18   -673.84672 1.9476879e-10    11178.087    3.1868027    22.359178 
    3930 3.9688222e-18   -673.84672 8.4557438e-11    11178.087    3.1868027    22.359178 
    3940 4.2726901e-18   -673.84672 -7.4157673e-11    11178.087    3.1868027    22.359178 
    3950 4.6400808e-18   -673.84672 -1.9866233e-10    11178.087    3.1868027    22.359178 
    3960 5.075355e-18   -673.84672 -1.0471218e-10    11178.087    3.1868027    22.359178 
    3970 5.581451e-18   -673.84672 5.3194096e-11    11178.087    3.1868027    22.359178 
    3980 6.1596595e-18   -673.84672 2.0993269e-10    11178.087    3.1868027    22.359178 
    3990 6.8093751e-18   -673.84672 1.3153241e-10    11178.087    3.1868027    22.359178 
    4000 7.5278942e-18   -673.84672 -1.198839e-10    11178.087    3.1868027    22.359178 
    4010 8.3102531e-18   -673.84672 -2.1549411e-10    11178.087    3.1868027    22.359178 
    4020 9.1491198e-18   -673.84672 -7.4058341e-11    11178.087    3.1868027    22.359178 
    4030 1.0034783e-17   -673.84672 1.3148968e-10    11178.087    3.1868027    22.359178 
    4040 1.0955197e-17   -673.84672 2.1001919e-10    11178.087    3.1868027    22.359178 
    4050 1.1896161e-17   -673.84672 5.2165248e-11    11178.087    3.1868027    22.359178 
    4060 1.2841491e-17   -673.84672 -1.0421069e-10    11178.087    3.1868027    22.359178 
    4070 1.3773383e-17   -673.84672 -2.1547701e-10    11178.087    3.1868027    22.359178 
    4080 1.4672814e-17   -673.84672 -8.9262112e-11    11178.087    3.1868027    22.359178 
    4090 1.5520132e-17   -673.84672 2.0988158e-10    11178.087    3.1868027    22.359178 
    4100 1.6295578e-17   -673.84672 1.7935818e-10    11178.087    3.1868027    22.359178 
    4110 1.6980061e-17   -673.84672 -2.6222978e-10    11178.087    3.1868027    22.359178 
    4120 1.7555848e-17   -673.84672 -2.3126511e-10    11178.087    3.1868027    22.359178 
    4130 1.8007412e-17   -673.84672 2.5807764e-10    11178.087    3.1868027    22.359178 
    4140 1.8322244e-17   -673.84672 2.5773554e-10    11178.087    3.1868027    22.359178 
    4150 1.849172e-17   -673.84672 -3.7300416e-10    11178.087    3.1868027    22.359178 
    4160 1.8511845e-17   -673.84672 -1.3672281e-10    11178.087    3.1868027    22.359178 
    4170 1.8384093e-17   -673.84672 3.9998037e-10    11178.087    3.1868027    22.359178 
    4180 1.8116014e-17   -673.84672 -1.0531712e-10    11178.087    3.1868027    22.359178 
    4190 1.7721852e-17   -673.84672 -3.7296575e-10    11178.087    3.1868027    22.359178 
    4200 1.7222939e-17   -673.84672 2.5774092e-10    11178.087    3.1868027    22.359178 
    4210 1.6647877e-17   -673.84672 3.5245076e-10    11178.087    3.1868027    22.359178 
    4220 1.6032603e-17   -673.84672 -3.7301598e-10    11178.087    3.1868027    22.359178 
    4230 1.5420165e-17   -673.84672 -2.1527973e-10    11178.087    3.1868027    22.359178 
    4240 1.4860299e-17   -673.84672 4.1572256e-10    11178.087    3.1868027    22.359178 
    4250 1.4408555e-17   -673.84672 -7.3479618e-11    11178.087    3.1868027    22.359178 
    4260 1.4125413e-17   -673.84672 -4.198368e-10    11178.087    3.1868027    22.359178 
    4270 1.4075022e-17   -673.84672 3.520767e-10    11178.087    3.1868027    22.359178 
    4280 1.4323617e-17   -673.84672 3.0471531e-10    11178.087    3.1868027    22.359178 
    4290 1.4937769e-17   -673.84672 -4.2076629e-10    11178.087    3.1868027    22.359178 
    4300 1.5982427e-17   -673.84672 -5.7453991e-11    11178.087    3.1868027    22.359178 
    4310 1.7518759e-17   -673.84672 4.458087e-10    11178.087    3.1868027    22.359178 
    4320 1.9601918e-17   -673.84672 -2.7827679e-10    11178.087    3.1868027    22.359178 
    4330 2.2278735e-17   -673.84672 -4.0429117e-10    11178.087    3.1868027    22.359178 
    4340 2.5585515e-17   -673.84672 4.1498901e-10    11178.087    3.1868027    22.359178 
    4350 2.9545915e-17   -673.84672 1.7858491e-10    11178.087    3.1868027    22.359178 
    4360 3.4168863e-17   -673.84672 -4.36214e-10    11178.087    3.1868027    22.359178 
    4370 3.9446972e-17   -673.84672 8.4348245e-11    11178.087    3.1868027    22.359178 
    4380 4.5355238e-17   -673.84672 4.6279063e-10    11178.087    3.1868027    22.359178 
    4390 5.1850159e-17   -673.84672 -4.5195416e-10    11178.087    3.1868027    22.359178 
    4400 5.8869233e-17   -673.84672 -2.7871496e-10    11178.087    3.1868027    22.359178 
    4410 6.6331463e-17   -673.84672 4.9377919e-10    11178.087    3.1868027    22.359178 
    4420 7.4138302e-17   -673.84672 -1.0486979e-10    11178.087    3.1868027    22.359178 
    4430 8.2174956e-17   -673.84672 -4.5155589e-10    11178.087    3.1868027    22.359178 
    4440 9.0313078e-17   -673.84672 4.1490204e-10    11178.087    3.1868027    22.359178 
    4450 9.8413755e-17   -673.84672 2.4254147e-10    11178.087    3.1868027    22.359178 
    4460 1.063313e-16   -673.84672 -4.6706777e-10    11178.087    3.1868027    22.359178 
    4470 1.1391781e-16   -673.84672 5.2361304e-11    11178.087    3.1868027    22.359178 
    4480 1.2102834e-16   -673.84672 4.7885922e-10    11178.087    3.1868027    22.359178 
    4490 1.2752639e-16   -673.84672 -4.3612274e-10    11178.087    3.1868027    22.359178 
    4500 1.3328954e-16   -673.84672 -3.0955579e-10    11178.087    3.1868027    22.359178 
    4510  1.38216e-16   -673.84672 5.0971021e-10    11178.087    3.1868027    22.359178 
    4520 1.4223073e-16   -673.84672 -8.9543322e-11    11178.087    3.1868027    22.359178 
    4530 1.4529111e-16   -673.84672 -4.3644339e-10    11178.087    3.1868027    22.359178 
    4540 1.4739309e-16   -673.84672 3.8371088e-10    11178.087    3.1868027    22.359178 
    4550 1.4857586e-16   -673.84672 3.3596994e-10    11178.087    3.1868027    22.359178 
    4560 1.4892584e-16   -673.84672 -4.8299684e-10    11178.087    3.1868027    22.359178 
    4570 1.4857973e-16   -673.84672 2.1561107e-11    11178.087    3.1868027    22.359178 
    4580 1.4772646e-16   -673.84672 4.9472483e-10    11178.087    3.1868027    22.359178 
    4590 1.4660749e-16   -673.84672 -4.2011573e-10    11178.087    3.1868027    22.359178 
    4600 1.4551513e-16   -673.84672 -3.5770095e-10    11178.087    3.1868027    22.359178 
    4610 1.4478969e-16   -673.84672 4.6171712e-10    11178.087    3.1868027    22.359178 
    4620 1.4481417e-16   -673.84672 -9.7955557e-12    11178.087    3.1868027    22.359178 
    4630 1.4600726e-16   -673.84672 -4.83805e-10    11178.087    3.1868027    22.359178 
    4640 1.4881469e-16   -673.84672 3.8385436e-10    11178.087    3.1868027    22.359178 
    4650 1.5369865e-16   -673.84672 3.3636626e-10    11178.087    3.1868027    22.359178 
    4660 1.6112553e-16   -673.84672 -4.8331042e-10    11178.087    3.1868027    22.359178 
    4670 1.7155249e-16   -673.84672 5.0715464e-12    11178.087    3.1868027    22.359178 
    4680 1.8541299e-16   -673.84672 4.6249544e-10    11178.087    3.1868027    22.359178 
    4690 2.0310176e-16   -673.84672 -3.5730259e-10    11178.087    3.1868027    22.359178 
    4700 2.2495942e-16   -673.84672 -3.7375827e-10    11178.087    3.1868027    22.359178 
    4710 2.5125762e-16   -673.84672 3.9970266e-10    11178.087    3.1868027    22.359178 
    4720 2.8218518e-16   -673.84672 1.6332265e-10    11178.087    3.1868027    22.359178 
    4730 3.1783558e-16   -673.84672 -4.3582238e-10    11178.087    3.1868027    22.359178 
    4740 3.5819648e-16   -673.84672 1.7846045e-10    11178.087    3.1868027    22.359178 
    4750 4.0314223e-16   -673.84672 4.0021317e-10    11178.087    3.1868027    22.359178 
    4760 4.5242937e-16   -673.84672 -3.2500727e-10    11178.087    3.1868027    22.359178 
    4770 5.0569641e-16   -673.84672 -2.775447e-10    11178.087    3.1868027    22.359178 
    4780 5.6246757e-16   -673.84672 3.0484675e-10    11178.087    3.1868027    22.359178 
    4790 6.2216092e-16   -673.84672 2.8906455e-10    11178.087    3.1868027    22.359178 
    4800 6.8410194e-16   -673.84672 -3.4190617e-10    11178.087    3.1868027    22.359178 
    4810 7.4754151e-16   -673.84672 -8.9470102e-11    11178.087    3.1868027    22.359178 
    4820 8.1167968e-16   -673.84672 3.5221595e-10    11178.087    3.1868027    22.359178 
    4830 8.7569263e-16   -673.84672 -4.1770921e-11    11178.087    3.1868027    22.359178 
    4840 9.3876609e-16   -673.84672 -3.4102713e-10    11178.087    3.1868027    22.359178 
    4850 1.0001301e-15   -673.84672 9.9893379e-11    11178.087    3.1868027    22.359178 
    4860 1.0590985e-15   -673.84672 3.5271455e-10    11178.087    3.1868027    22.359178 
    4870 1.1151091e-15   -673.84672 -2.7879329e-10    11178.087    3.1868027    22.359178 
    4880 1.1677651e-15   -673.84672 -2.9466881e-10    11178.087    3.1868027    22.359178 
    4890 1.2168758e-15   -673.84672 2.8939171e-10    11178.087    3.1868027    22.359178 
    4900 1.2624949e-15   -673.84672 3.0464643e-10    11178.087    3.1868027    22.359178 
    4910 1.3049563e-15   -673.84672 -3.2577686e-10    11178.087    3.1868027    22.359178 
    4920 1.3449032e-15   -673.84672 -2.3112558e-10    11178.087    3.1868027    22.359178 
    4930 1.3833112e-15   -673.84672 3.5190127e-10    11178.087    3.1868027    22.359178 
    4940 1.4215029e-15   -673.84672 1.1644272e-10    11178.087    3.1868027    22.359178 
    4950 1.4611536e-15   -673.84672 -3.8807316e-10    11178.087    3.1868027    22.359178 
    4960 1.5042849e-15   -673.84672 9.957821e-11    11178.087    3.1868027    22.359178 
    4970 1.5532462e-15   -673.84672 3.516509e-10    11178.087    3.1868027    22.359178 
    4980 1.6106849e-15   -673.84672 -2.7876684e-10    11178.087    3.1868027    22.359178 
    4990 1.6795021e-15   -673.84672 -3.0916438e-10    11178.087    3.1868027    22.359178 
    5000 1.7627956e-15   -673.84672 2.2555617e-10    11178.087    3.1868027    22.359178 
    5010 1.8637909e-15   -673.84672 3.209965e-10    11178.087    3.1868027    22.359178 
    5020 1.9857603e-15   -673.84672 -3.0927938e-10    11178.087    3.1868027    22.359178 
    5030 2.1319321e-15   -673.84672 -2.9265666e-10    11178.087    3.1868027    22.359178 
    5040 2.3053911e-15   -673.84672 3.3688429e-10    11178.087    3.1868027    22.359178 
    5050 2.5089738e-15   -673.84672 1.947024e-10    11178.087    3.1868027    22.359178 
    5060 2.7451614e-15   -673.84672 -3.2630154e-10    11178.087    3.1868027    22.359178 
    5070 3.0159728e-15   -673.84672 -5.8198056e-11    11178.087    3.1868027    22.359178 
    5080 3.3228617e-15   -673.84672 3.2036467e-10    11178.087    3.1868027    22.359178 
    5090 3.6666244e-15   -673.84672 -7.3713664e-11    11178.087    3.1868027    22.359178 
    5100 4.0473164e-15   -673.84672 -2.7858605e-10    11178.087    3.1868027    22.359178 
    5110 4.4641896e-15   -673.84672 5.987199e-12    11178.087    3.1868027    22.359178 
    5120 4.9156459e-15   -673.84672 2.8900446e-10    11178.087    3.1868027    22.359178 
    5130 5.3992219e-15   -673.84672 -2.5902744e-11    11178.087    3.1868027    22.359178 
    5140 5.9115932e-15   -673.84672 -2.4688951e-10    11178.087    3.1868027    22.359178 
    5150 6.4486205e-15   -673.84672 -1.3581992e-10    11178.087    3.1868027    22.359178 
    5160 7.0054162e-15   -673.84672 2.5741475e-10    11178.087    3.1868027    22.359178 
    5170 7.5764583e-15   -673.84672 1.9442043e-10    11178.087    3.1868027    22.359178 
    5180 8.1557294e-15   -673.84672 -3.2484139e-10    11178.087    3.1868027    22.359178 
    5190 8.7368971e-15   -673.84672 -7.2612624e-11    11178.087    3.1868027    22.359178 
    5200 9.3135189e-15   -673.84672 3.209183e-10    11178.087    3.1868027    22.359178 
    5210 9.879286e-15   -673.84672 2.1582955e-11    11178.087    3.1868027    22.359178 
    5220 1.0428281e-14   -673.84672 -2.9453134e-10    11178.087    3.1868027    22.359178 
    5230 1.0955266e-14   -673.84672 -1.0467784e-11    11178.087    3.1868027    22.359178 
    5240 1.1455966e-14   -673.84672 3.2093824e-10    11178.087    3.1868027    22.359178 
    5250 1.1927378e-14   -673.84672 -8.9220996e-11    11178.087    3.1868027    22.359178 
    5260 1.2368052e-14   -673.84672 -3.5649033e-10    11178.087    3.1868027    22.359178 
    5270 1.2778375e-14   -673.84672 2.7358295e-10    11178.087    3.1868027    22.359178 
    5280 1.316082e-14   -673.84672 3.6741227e-10    11178.087    3.1868027    22.359178 
    5290 1.3520157e-14   -673.84672 -3.5661013e-10    11178.087    3.1868027    22.359178 
    5300 1.3863627e-14   -673.84672 -1.8309163e-10    11178.087    3.1868027    22.359178 
    5310 1.420105e-14   -673.84672 3.5349375e-10    11178.087    3.1868027    22.359178 
    5320 1.4544876e-14   -673.84672 6.8931832e-11    11178.087    3.1868027    22.359178 
    5330 1.4910158e-14   -673.84672 -4.2008056e-10    11178.087    3.1868027    22.359178 
    5340 1.5314446e-14   -673.84672 2.5857194e-10    11178.087    3.1868027    22.359178 
    5350 1.5777595e-14   -673.84672 3.9962987e-10    11178.087    3.1868027    22.359178 
    5360 1.6321496e-14   -673.84672 -4.1996494e-10    11178.087    3.1868027    22.359178 
    5370 1.6969712e-14   -673.84672 -1.5125558e-10    11178.087    3.1868027    22.359178 
    5380 1.7747036e-14   -673.84672 4.6227359e-10    11178.087    3.1868027    22.359178 
    5390 1.867898e-14   -673.84672 -2.4510666e-10    11178.087    3.1868027    22.359178 
    5400 1.9791185e-14   -673.84672 -3.7115664e-10    11178.087    3.1868027    22.359178 
    5410 2.1108791e-14   -673.84672 3.5259918e-10    11178.087    3.1868027    22.359178 
    5420 2.2655764e-14   -673.84672 3.3742591e-10    11178.087    3.1868027    22.359178 
    5430 2.4454198e-14   -673.84672 -4.8229003e-10    11178.087    3.1868027    22.359178 
    5440 2.6523628e-14   -673.84672 2.2263851e-11    11178.087    3.1868027    22.359178 
    5450 2.8880357e-14   -673.84672 5.1058041e-10    11178.087    3.1868027    22.359178 
    5460 3.1536835e-14   -673.84672 -4.0388998e-10    11178.087    3.1868027    22.359178 
    5470 3.4501102e-14   -673.84672 -3.5605639e-10    11178.087    3.1868027    22.359178 
    5480 3.7776336e-14   -673.84672 4.1498615e-10    11178.087    3.1868027    22.359178 
    5490 4.1360505e-14   -673.84672 6.9410695e-11    11178.087    3.1868027    22.359178 
    5500 4.5246177e-14   -673.84672 -4.1896426e-10    11178.087    3.1868027    22.359178 
    5510 4.9420464e-14   -673.84672 2.1165521e-10    11178.087    3.1868027    22.359178 
    5520 5.3865162e-14   -673.84672 3.6878065e-10    11178.087    3.1868027    22.359178 
    5530 5.8557062e-14   -673.84672 -3.5485417e-10    11178.087    3.1868027    22.359178 
    5540 6.3468454e-14   -673.84672 -2.1421866e-10    11178.087    3.1868027    22.359178 
    5550 6.8567824e-14   -673.84672 3.687368e-10    11178.087    3.1868027    22.359178 
    5560 7.3820738e-14   -673.84672 1.009649e-10    11178.087    3.1868027    22.359178 
    5570 7.9190895e-14   -673.84672 -4.025728e-10    11178.087    3.1868027    22.359178 
    5580 8.4641337e-14   -673.84672 1.6496169e-10    11178.087    3.1868027    22.359178 
    5590 9.013579e-14   -673.84672 3.8517435e-10    11178.087    3.1868027    22.359178 
    5600 9.5640109e-14   -673.84672 -3.3854194e-10    11178.087    3.1868027    22.359178 
    5610 1.0112377e-13   -673.84672 -3.2340896e-10    11178.087    3.1868027    22.359178 
    5620 1.0656141e-13   -673.84672 3.5487282e-10    11178.087    3.1868027    22.359178 
    5630 1.1193431e-13   -673.84672 2.1344587e-10    11178.087    3.1868027    22.359178 
    5640 1.1723185e-13   -673.84672 -4.0169384e-10    11178.087    3.1868027    22.359178 
    5650 1.224528e-13   -673.84672 7.2026849e-11    11178.087    3.1868027    22.359178 
    5660 1.2760649e-13   -673.84672 3.7176986e-10    11178.087    3.1868027    22.359178 
    5670 1.3271373e-13   -673.84672 -2.5782351e-10    11178.087    3.1868027    22.359178 
    5680 1.3780755e-13   -673.84672 -2.7373239e-10    11178.087    3.1868027    22.359178 
    5690 1.4293355e-13   -673.84672 2.1543663e-10    11178.087    3.1868027    22.359178 
    5700 1.4815005e-13   -673.84672 2.7824696e-10    11178.087    3.1868027    22.359178 
    5710 1.5352782e-13   -673.84672 -2.5765364e-10    11178.087    3.1868027    22.359178 
    5720 1.591496e-13   -673.84672 -2.5737715e-10    11178.087    3.1868027    22.359178 
    5730 1.6510915e-13   -673.84672 2.3155054e-10    11178.087    3.1868027    22.359178 
    5740 1.7151009e-13   -673.84672 2.796145e-10    11178.087    3.1868027    22.359178 
    5750 1.7846443e-13   -673.84672 -2.5580511e-10    11178.087    3.1868027    22.359178 
    5760 1.860909e-13   -673.84672 -2.3979806e-10    11178.087    3.1868027    22.359178 
    5770 1.9451305e-13   -673.84672 2.4996133e-10    11178.087    3.1868027    22.359178 
    5780 2.0385725e-13   -673.84672 2.8120611e-10    11178.087    3.1868027    22.359178 
    5790 2.1425072e-13   -673.84672 -2.5440332e-10    11178.087    3.1868027    22.359178 
    5800 2.258195e-13   -673.84672 -2.2152123e-10    11178.087    3.1868027    22.359178 
    5810 2.3868666e-13   -673.84672 2.1946025e-10    11178.087    3.1868027    22.359178 
    5820 2.5297061e-13   -673.84672 2.3626533e-10    11178.087    3.1868027    22.359178 
    5830 2.6878383e-13   -673.84672 -2.0505707e-10    11178.087    3.1868027    22.359178 
    5840 2.8623193e-13   -673.84672 -2.045554e-10    11178.087    3.1868027    22.359178 
    5850 3.0541311e-13   -673.84672 1.4196884e-10    11178.087    3.1868027    22.359178 
    5860 3.2641826e-13   -673.84672 2.5334864e-10    11178.087    3.1868027    22.359178 
    5870 3.4933147e-13   -673.84672 -7.7337681e-11    11178.087    3.1868027    22.359178 
    5880 3.7423122e-13   -673.84672 -2.8085221e-10    11178.087    3.1868027    22.359178 
    5890 4.0119211e-13   -673.84672 3.6750061e-12    11178.087    3.1868027    22.359178 
    5900 4.3028711e-13   -673.84672 2.8827821e-10    11178.087    3.1868027    22.359178 
    5910 4.615904e-13   -673.84672 -1.2035237e-11    11178.087    3.1868027    22.359178 
    5920 4.9518056e-13   -673.84672 -3.0981506e-10    11178.087    3.1868027    22.359178 
    5930 5.3114424e-13   -673.84672 8.4846043e-11    11178.087    3.1868027    22.359178 
    5940 5.6957994e-13   -673.84672 3.0657667e-10    11178.087    3.1868027    22.359178 
    5950 6.1060204e-13   -673.84672 -2.1360663e-10    11178.087    3.1868027    22.359178 
    5960 6.5434479e-13   -673.84672 -2.9050139e-10    11178.087    3.1868027    22.359178 
    5970 7.0096608e-13   -673.84672 1.5162614e-10    11178.087    3.1868027    22.359178 
    5980 7.5065111e-13   -673.84672 2.9456939e-10    11178.087    3.1868027    22.359178 
    5990 8.0361548e-13   -673.84672 -2.3975722e-10    11178.087    3.1868027    22.359178 
    6000 8.6010791e-13   -673.84672 -2.8621407e-10    11178.087    3.1868027    22.359178 
    6010 9.204123e-13   -673.84672 1.5703962e-10    11178.087    3.1868027    22.359178 
    6020 9.848492e-13   -673.84672  3.32421e-10    11178.087    3.1868027    22.359178 
    6030 1.0537766e-12   -673.84672 -2.9690952e-10    11178.087    3.1868027    22.359178 
    6040 1.1275901e-12   -673.84672 -2.6318942e-10    11178.087    3.1868027    22.359178 
    6050 1.2067228e-12   -673.84672 2.7464179e-10    11178.087    3.1868027    22.359178 
    6060 1.2916444e-12   -673.84672 2.6088929e-10    11178.087    3.1868027    22.359178 
    6070 1.3828603e-12   -673.84672 -2.7333028e-10    11178.087    3.1868027    22.359178 
    6080 1.4809112e-12   -673.84672 -2.0750283e-10    11178.087    3.1868027    22.359178 
    6090 1.5863725e-12   -673.84672 2.3638612e-10    11178.087    3.1868027    22.359178 
    6100 1.6998548e-12   -673.84672 2.2342233e-10    11178.087    3.1868027    22.359178 
    6110 1.822005e-12   -673.84672 -3.0994945e-10    11178.087    3.1868027    22.359178 
    6120 1.9535101e-12   -673.84672 -1.3358385e-10    11178.087    3.1868027    22.359178 
    6130 2.0951014e-12   -673.84672 3.1050781e-10    11178.087    3.1868027    22.359178 
    6140 2.247562e-12   -673.84672 1.4027145e-10    11178.087    3.1868027    22.359178 
    6150 2.4117371e-12   -673.84672 -3.6037199e-10    11178.087    3.1868027    22.359178 
    6160 2.5885461e-12   -673.84672 2.191367e-11    11178.087    3.1868027    22.359178 
    6170 2.7789994e-12   -673.84672 3.570686e-10    11178.087    3.1868027    22.359178 
    6180 2.9842178e-12   -673.84672 -1.5939325e-10    11178.087    3.1868027    22.359178 
    6190 3.2054547e-12   -673.84672 -3.2738188e-10    11178.087    3.1868027    22.359178 
    6200 3.444123e-12   -673.84672 1.6587755e-10    11178.087    3.1868027    22.359178 
    6210 3.7018238e-12   -673.84672 3.4426161e-10    11178.087    3.1868027    22.359178 
    6220 3.9803785e-12   -673.84672 -3.742824e-10    11178.087    3.1868027    22.359178 
    6230 4.2818625e-12   -673.84672 -2.7379868e-10    11178.087    3.1868027    22.359178 
    6240 4.608641e-12   -673.84672 4.1106641e-10    11178.087    3.1868027    22.359178 
    6250 4.9634055e-12   -673.84672 3.8996111e-11    11178.087    3.1868027    22.359178 
    6260 5.3492097e-12   -673.84672 -4.4238414e-10    11178.087    3.1868027    22.359178 
    6270 5.769505e-12   -673.84672 2.9077667e-10    11178.087    3.1868027    22.359178 
    6280 6.2281742e-12   -673.84672 4.2646016e-10    11178.087    3.1868027    22.359178 
    6290 6.729562e-12   -673.84672 -4.8009379e-10    11178.087    3.1868027    22.359178 
    6300 7.2785027e-12   -673.84672 -4.5037362e-11    11178.087    3.1868027    22.359178 
    6310 7.8803434e-12   -673.84672 5.1733209e-10    11178.087    3.1868027    22.359178 
    6320 8.5409635e-12   -673.84672 -2.9282407e-10    11178.087    3.1868027    22.359178 
    6330 9.2667891e-12   -673.84672 -4.2333891e-10    11178.087    3.1868027    22.359178 
    6340 1.0064805e-11   -673.84672 5.0348753e-10    11178.087    3.1868027    22.359178 
    6350 1.0942561e-11   -673.84672 1.6855044e-10    11178.087    3.1868027    22.359178 
    6360 1.1908182e-11   -673.84672 -6.3670795e-10    11178.087    3.1868027    22.359178 
    6370 1.297037e-11   -673.84672 1.5145084e-10    11178.087    3.1868027    22.359178 
    6380 1.4138421e-11   -673.84672 6.390439e-10    11178.087    3.1868027    22.359178 
    6390 1.5422235e-11   -673.84672 -4.4729209e-10    11178.087    3.1868027    22.359178 
    6400 1.6832348e-11   -673.84672 -4.7676399e-10    11178.087    3.1868027    22.359178 
    6410 1.8379971e-11   -673.84672 6.631143e-10    11178.087    3.1868027    22.359178 
    6420 2.0077054e-11   -673.84672 2.1115037e-10    11178.087    3.1868027    22.359178 
    6430 2.1936372e-11   -673.84672 -7.4234104e-10    11178.087    3.1868027    22.359178 
    6440 2.3971645e-11   -673.84672 8.5843425e-11    11178.087    3.1868027    22.359178 
    6450 2.6197691e-11   -673.84672 7.7540279e-10    11178.087    3.1868027    22.359178 
    6460 2.8630631e-11   -673.84672 -3.1262543e-10    11178.087    3.1868027    22.359178 
    6470 3.1288134e-11   -673.84672 -6.8996542e-10    11178.087    3.1868027    22.359178 
    6480 3.4189721e-11   -673.84672 5.4456736e-10    11178.087    3.1868027    22.359178 
    6490 3.7357131e-11   -673.84672 4.4195289e-10    11178.087    3.1868027    22.359178 
    6500 4.0814749e-11   -673.84672 -7.4527185e-10    11178.087    3.1868027    22.359178 
    6510 4.4590094e-11   -673.84672 -1.7698319e-10    11178.087    3.1868027    22.359178 
    6520 4.8714389e-11   -673.84672 8.0430927e-10    11178.087    3.1868027    22.359178 
    6530 5.3223183e-11   -673.84672 -2.2654126e-10    11178.087    3.1868027    22.359178 
    6540 5.8157054e-11   -673.84672 -7.6475432e-10    11178.087    3.1868027    22.359178 
    6550 6.3562358e-11   -673.84672 4.5274974e-10    11178.087    3.1868027    22.359178 
    6560 6.9492051e-11   -673.84672 5.8869639e-10    11178.087    3.1868027    22.359178 
    6570 7.6006552e-11   -673.84672 -7.057077e-10    11178.087    3.1868027    22.359178 
    6580 8.3174645e-11   -673.84672 -3.2106109e-10    11178.087    3.1868027    22.359178 
    6590 9.107442e-11   -673.84672  8.73353e-10    11178.087    3.1868027    22.359178 
    6600 9.9794228e-11   -673.84672 -8.4929237e-11    11178.087    3.1868027    22.359178 
    6610 1.0943364e-10   -673.84672 -8.4552895e-10    11178.087    3.1868027    22.359178 
    6620 1.2010443e-10   -673.84672 4.4996633e-10    11178.087    3.1868027    22.359178 
    6630 1.319315e-10   -673.84672 6.8331441e-10    11178.087    3.1868027    22.359178 
    6640 1.4505382e-10   -673.84672 -7.6066327e-10    11178.087    3.1868027    22.359178 
    6650 1.5962533e-10   -673.84672 -3.2107726e-10    11178.087    3.1868027    22.359178 
    6660 1.7581585e-10   -673.84672 8.7362659e-10    11178.087    3.1868027    22.359178 
    6670 1.9381185e-10   -673.84672 -3.379189e-11    11178.087    3.1868027    22.359178 
    6680 2.1381741e-10   -673.84672 -8.9527064e-10    11178.087    3.1868027    22.359178 
    6690 2.3605496e-10   -673.84672 4.1672677e-10    11178.087    3.1868027    22.359178 
    6700 2.6076623e-10   -673.84672 7.8520594e-10    11178.087    3.1868027    22.359178 
    6710 2.8821317e-10   -673.84672 -7.9700801e-10    11178.087    3.1868027    22.359178 
    6720 3.1867902e-10   -673.84672 -3.8885679e-10    11178.087    3.1868027    22.359178 
    6730 3.5246959e-10   -673.84672 9.4287703e-10    11178.087    3.1868027    22.359178 
    6740 3.8991467e-10   -673.84672 1.0978717e-12    11178.087    3.1868027    22.359178 
    6750 4.3136994e-10   -673.84672 -9.071235e-10    11178.087    3.1868027    22.359178 
    6760 4.7721916e-10   -673.84672 3.7935033e-10    11178.087    3.1868027    22.359178 
    6770 5.2787697e-10   -673.84672 7.4613438e-10    11178.087    3.1868027    22.359178 
    6780 5.837923e-10   -673.84672 -7.4638058e-10    11178.087    3.1868027    22.359178 
    6790 6.4545262e-10   -673.84672 -2.9478692e-10    11178.087    3.1868027    22.359178 
    6800 7.1338902e-10   -673.84672 9.1050738e-10    11178.087    3.1868027    22.359178 
    6810 7.8818243e-10   -673.84672 -1.4935952e-10    11178.087    3.1868027    22.359178 
    6820 8.7047102e-10   -673.84672 -8.8221314e-10    11178.087    3.1868027    22.359178 
    6830 9.6095892e-10   -673.84672 7.3904668e-10    11178.087    3.1868027    22.359178 
    6840 1.0604265e-09   -673.84672 5.6247892e-10    11178.087    3.1868027    22.359178 
    6850 1.1697422e-09   -673.84672 -9.2989013e-10    11178.087    3.1868027    22.359178 
    6860 1.2898763e-09   -673.84672 -2.7640206e-10    11178.087    3.1868027    22.359178 
    6870 1.4219167e-09   -673.84672 1.1001859e-09    11178.087    3.1868027    22.359178 
    6880 1.5670859e-09   -673.84672 -8.3560817e-11    11178.087    3.1868027    22.359178 
    6890 1.7267616e-09   -673.84672 -1.0248073e-09    11178.087    3.1868027    22.359178 
    6900 1.902498e-09   -673.84672 6.040061e-10    11178.087    3.1868027    22.359178 
    6910 2.0960504e-09   -673.84672 8.4506143e-10    11178.087    3.1868027    22.359178 
    6920 2.3094018e-09   -673.84672 -9.3384506e-10    11178.087    3.1868027    22.359178 
    6930 2.5447918e-09   -673.84672 -3.3830637e-10    11178.087    3.1868027    22.359178 
    6940 2.8047478e-09   -673.84672 1.1516978e-09    11178.087    3.1868027    22.359178 
    6950 3.0921196e-09   -673.84672 -1.5287907e-10    11178.087    3.1868027    22.359178 
    6960 3.410115e-09   -673.84672 -1.0024824e-09    11178.087    3.1868027    22.359178 
    6970 3.7623394e-09   -673.84672 7.0154931e-10    11178.087    3.1868027    22.359178 
    6980 4.152837e-09   -673.84672 8.369361e-10    11178.087    3.1868027    22.359178 
    6990 4.5861355e-09   -673.84672 -8.8754539e-10    11178.087    3.1868027    22.359178 
    7000 5.0672932e-09   -673.84672 -4.7384052e-10    11178.087    3.1868027    22.359178 
    7010 5.6019494e-09   -673.84672 1.2096299e-09    11178.087    3.1868027    22.359178 
    7020 6.1963789e-09   -673.84672 1.3273894e-10    11178.087    3.1868027    22.359178 
    7030 6.8575491e-09   -673.84672 -1.0962476e-09    11178.087    3.1868027    22.359178 
    7040 7.5931831e-09   -673.84672 5.1608913e-10    11178.087    3.1868027    22.359178 
    7050 8.4118272e-09   -673.84672 9.8678944e-10    11178.087    3.1868027    22.359178 
    7060 9.3229242e-09   -673.84672 -7.3864824e-10    11178.087    3.1868027    22.359178 
    7070 1.0336895e-08   -673.84672 -4.1731322e-10    11178.087    3.1868027    22.359178 
    7080 1.1465228e-08   -673.84672 1.073832e-09    11178.087    3.1868027    22.359178 
    7090 1.2720578e-08   -673.84672 1.5087699e-10    11178.087    3.1868027    22.359178 
    7100 1.4116879e-08   -673.84672 -9.039219e-10    11178.087    3.1868027    22.359178 
    7110 1.5669468e-08   -673.84672 4.399917e-10    11178.087    3.1868027    22.359178 
    7120 1.7395227e-08   -673.84672 1.166566e-09    11178.087    3.1868027    22.359178 
    7130 1.9312748e-08   -673.84672 -5.2771482e-10    11178.087    3.1868027    22.359178 
    7140 2.1442508e-08   -673.84672 -5.6133456e-10    11178.087    3.1868027    22.359178 
    7150 2.3807084e-08   -673.84672 1.3848124e-09    11178.087    3.1868027    22.359178 
    7160 2.643139e-08   -673.84672 6.192044e-10    11178.087    3.1868027    22.359178 
    7170 2.9342943e-08   -673.84672 -8.8347538e-10    11178.087    3.1868027    22.359178 
    7180 3.2572175e-08   -673.84672 5.4116191e-10    11178.087    3.1868027    22.359178 
    7190 3.6152781e-08   -673.84672 1.6550023e-09    11178.087    3.1868027    22.359178 
    7200 4.0122118e-08   -673.84672 -1.888371e-10    11178.087    3.1868027    22.359178 
    7210 4.452165e-08   -673.84672 -4.1525914e-10    11178.087    3.1868027    22.359178 
    7220 4.939746e-08   -673.84672 1.6593019e-09    11178.087    3.1868027    22.359178 
    7230 5.4800815e-08   -673.84672 1.1412098e-09    11178.087    3.1868027    22.359178 
    7240 6.0788814e-08   -673.84672 -6.126815e-10    11178.087    3.1868027    22.359178 
    7250 6.7425101e-08   -673.84672 8.6817307e-10    11178.087    3.1868027    22.359178 
    7260 7.4780669e-08   -673.84672 2.2702712e-09    11178.087    3.1868027    22.359178 
    7270 8.2934754e-08   -673.84672 2.3023353e-10    11178.087    3.1868027    22.359178 
    7280 9.1975827e-08   -673.84672 -1.2612113e-11    11178.087    3.1868027    22.359178 
    7290 1.020027e-07   -673.84672 2.2051321e-09    11178.087    3.1868027    22.359178 
    7300 1.1312574e-07   -673.84672 1.7704629e-09    11178.087    3.1868027    22.359178 
    7310 1.2546824e-07   -673.84672 1.0823562e-10    11178.087    3.1868027    22.359178 
    7320 1.3916787e-07   -673.84672 1.3422526e-09    11178.087    3.1868027    22.359178 
    7330 1.5437836e-07   -673.84672 2.8573511e-09    11178.087    3.1868027    22.359178 
    7340 1.7127131e-07   -673.84672 1.2962117e-09    11178.087    3.1868027    22.359178 
    7350 1.9003815e-07   -673.84672 8.2997571e-10    11178.087    3.1868027    22.359178 
    7360 2.1089239e-07   -673.84672 3.0648714e-09    11178.087    3.1868027    22.359178 
    7370 2.3407202e-07   -673.84672 3.0023897e-09    11178.087    3.1868027    22.359178 
    7380 2.5984221e-07   -673.84672 1.3718571e-09    11178.087    3.1868027    22.359178 
    7390 2.8849823e-07   -673.84672 2.6142222e-09    11178.087    3.1868027    22.359178 
    7400 3.2036875e-07   -673.84672 4.3485744e-09    11178.087    3.1868027    22.359178 
    7410 3.5581946e-07   -673.84672 3.0284361e-09    11178.087    3.1868027    22.359178 
    7420 3.9525703e-07   -673.84672 2.9022495e-09    11178.087    3.1868027    22.359178 
    7430 4.3913361e-07   -673.84672 5.0090835e-09    11178.087    3.1868027    22.359178 
    7440 4.8795172e-07   -673.84672 5.5071419e-09    11178.087    3.1868027    22.359178 
    7450 5.4226976e-07   -673.84672 4.3359571e-09    11178.087    3.1868027    22.359178 
    7460 6.0270813e-07   -673.84672 5.5575163e-09    11178.087    3.1868027    22.359178 
    7470 6.6995604e-07   -673.84672 7.9842847e-09    11178.087    3.1868027    22.359178 
    7480 7.4477913e-07   -673.84672 7.4180712e-09    11178.087    3.1868027    22.359178 
    7490 8.2802797e-07   -673.84672 7.1413079e-09    11178.087    3.1868027    22.359178 
    7500 9.206476e-07   -673.84672 1.0131001e-08    11178.087    3.1868027    22.359178 
    7510 1.0236882e-06   -673.84672 1.1608879e-08    11178.087    3.1868027    22.359178 
    7520 1.1383168e-06   -673.84672 1.0698795e-08    11178.087    3.1868027    22.359178 
    7530 1.265831e-06   -673.84672 1.2581771e-08    11178.087    3.1868027    22.359178 
    7540 1.4076737e-06   -673.84672 1.6208091e-08    11178.087    3.1868027    22.359178 
    7550 1.5654496e-06   -673.84672 1.6630925e-08    11178.087    3.1868027    22.359178 
    7560 1.7409444e-06   -673.84672 1.7045572e-08    11178.087    3.1868027    22.359178 
    7570 1.9361455e-06   -673.84672 2.1166526e-08    11178.087    3.1868027    22.359178 
    7580 2.1532652e-06   -673.84672 2.4288887e-08    11178.087    3.1868027    22.359178 
    7590 2.3947675e-06   -673.84672 2.4543199e-08    11178.087    3.1868027    22.359178 
    7600 2.6633965e-06   -673.84672 2.7612756e-08    11178.087    3.1868027    22.359178 
    7610 2.9622101e-06   -673.84672 3.3097737e-08    11178.087    3.1868027    22.359178 
    7620 3.2946157e-06   -673.84672 3.5380046e-08    11178.087    3.1868027    22.359178 
    7630 3.664411e-06   -673.84672 3.748749e-08    11178.087    3.1868027    22.359178 
    7640 4.0758298e-06   -673.84672 4.3830941e-08    11178.087    3.1868027    22.359178 
    7650 4.5335919e-06   -673.84672 4.9431243e-08    11178.087    3.1868027    22.359178 
    7660 5.0429602e-06   -673.84672 5.2209132e-08    11178.087    3.1868027    22.359178 
    7670 5.6098024e-06   -673.84672 5.8238084e-08    11178.087    3.1868027    22.359178 
    7680 6.2406616e-06   -673.84672 6.6940206e-08    11178.087    3.1868027    22.359178 
    7690 6.9428337e-06   -673.84672 7.3027023e-08    11178.087    3.1868027    22.359178 
    7700 7.7244536e-06   -673.84672 7.914505e-08    11178.087    3.1868027    22.359178 
    7710 8.5945914e-06   -673.84672 8.9919127e-08    11178.087    3.1868027    22.359178 
    7720 9.5633597e-06   -673.84672 1.0075014e-07    11178.087    3.1868027    22.359178 
    7730 1.0642032e-05   -673.84672 1.0959259e-07    11178.087    3.1868027    22.359178 
    7740 1.1843176e-05   -673.84672 1.2184645e-07    11178.087    3.1868027    22.359178 
    7750 1.3180799e-05   -673.84672 1.3776171e-07    11178.087    3.1868027    22.359178 
    7760 1.4670515e-05   -673.84672 1.5233979e-07    11178.087    3.1868027    22.359178 
    7770 1.6329725e-05   -673.84672 1.6773138e-07    11178.087    3.1868027    22.359178 
    7780 1.8177822e-05   -673.84672 1.8855581e-07    11178.087    3.1868027    22.359178 
    7790 2.0236416e-05   -673.84672 2.1132564e-07    11178.087    3.1868027    22.359178 
    7800 2.2529588e-05   -673.84672 2.3337245e-07    11178.087    3.1868027    22.359178 
    7810 2.5084171e-05   -673.84672 2.5989582e-07    11178.087    3.1868027    22.359178 
    7820 2.7930067e-05   -673.84672 2.9249029e-07    11178.087    3.1868027    22.359178 
    7830 3.1100591e-05   -673.84672 3.2544883e-07    11178.087    3.1868027    22.359178 
    7840 3.4632869e-05   -673.84672 3.6119959e-07    11178.087    3.1868027    22.359178 
    7850 3.8568273e-05   -673.84672 4.0498255e-07    11178.087    3.1868027    22.359178 
    7860 4.2952903e-05   -673.84671 4.5341942e-07    11178.087    3.1868027    22.359178 
    7870 4.7838139e-05   -673.84671 5.037231e-07    11178.087    3.1868027    22.359178 
    7880 5.3281241e-05   -673.84671 5.6194035e-07    11178.087    3.1868027    22.359178 
    7890 5.9346035e-05   -673.84671 6.298573e-07    11178.087    3.1868027    22.359178 
    7900 6.6103663e-05   -673.84671 7.0199535e-07    11178.087    3.1868027    22.359178 
    7910 7.3633435e-05   -673.84671 7.8110916e-07    11178.087    3.1868027    22.359178 
    7920 8.2023773e-05   -673.84671 8.7329612e-07    11178.087    3.1868027    22.359178 
    7930 9.1373266e-05   -673.84671 9.7558192e-07    11178.088    3.1868027    22.359178 
    7940 0.00010179185   -673.84671 1.0855788e-06    11178.088    3.1868027    22.359178 
    7950 0.00011340211   -673.84671 1.2098683e-06    11178.088    3.1868027    22.359178 
    7960 0.0001263408    -673.8467 1.3516788e-06    11178.088    3.1868026    22.359178 
    7970 0.0001407604    -673.8467 1.5060493e-06    11178.088    3.1868026    22.359178 
    7980 0.00015683104    -673.8467 1.6760511e-06    11178.088    3.1868026    22.359178 
    7990 0.00017474248    -673.8467 1.8694532e-06    11178.088    3.1868026    22.359178 
    8000 0.00019470642   -673.84669 2.084952e-06    11178.088    3.1868026    22.359178 
    8010 0.00021695906   -673.84669 2.3206014e-06    11178.088    3.1868026    22.359178 
    8020 0.00024176391   -673.84669 2.5847702e-06    11178.088    3.1868026    22.359178 
    8030  0.000269415   -673.84668  2.88287e-06    11178.088    3.1868026    22.359178 
    8040 0.0003002404   -673.84668 3.2115308e-06    11178.088    3.1868025    22.359178 
    8050 0.00033460619   -673.84668 3.5756294e-06    11178.088    3.1868025    22.359178 
    8060 0.00037292085   -673.84667 3.9863085e-06    11178.088    3.1868025    22.359179 
    8070 0.0004156402   -673.84666 4.4445717e-06    11178.088    3.1868025    22.359179 
    8080 0.00046327286   -673.84666 4.9506771e-06    11178.088    3.1868024    22.359179 
    8090 0.00051638641   -673.84665 5.5175948e-06    11178.089    3.1868024    22.359179 
    8100 0.00057561419   -673.84664 6.1544396e-06    11178.089    3.1868024    22.359179 
    8110 0.00064166296   -673.84663 6.8614549e-06    11178.089    3.1868023    22.359179 
    8120 0.00071532135   -673.84663 7.6480426e-06    11178.089    3.1868023    22.359179 
    8130 0.00079746939   -673.84661 8.5315984e-06    11178.089    3.1868022    22.359179 
    8140 0.00088908906    -673.8466 9.5189003e-06    11178.089    3.1868021    22.359179 
    8150 0.00099127613   -673.84659 1.0615966e-05     11178.09    3.1868021    22.359179 
    8160 0.0011052533   -673.84657 1.1842667e-05     11178.09     3.186802     22.35918 
    8170 0.0012323849   -673.84656 1.3217712e-05     11178.09    3.1868019     22.35918 
    8180 0.0013741933   -673.84654 1.4749632e-05     11178.09    3.1868018     22.35918 
    8190 0.0015323772   -673.84652 1.6456842e-05    11178.091    3.1868017     22.35918 
    8200  0.001708832   -673.84649 1.8368358e-05    11178.091    3.1868016    22.359181 
    8210 0.0019056724   -673.84647 2.0503919e-05    11178.092    3.1868015    22.359181 
    8220 0.0021252581   -673.84644 2.2882234e-05    11178.092    3.1868013    22.359181 
    8230 0.0023702217   -673.84641 2.5538313e-05    11178.093    3.1868012    22.359182 
    8240 0.0026435006   -673.84637 2.850803e-05    11178.093     3.186801    22.359182 
    8250 0.0029483719   -673.84633 3.1818354e-05    11178.094    3.1868008    22.359183 
    8260 0.0032884914   -673.84629 3.5508055e-05    11178.095    3.1868006    22.359183 
    8270 0.0036679377   -673.84624 3.9629565e-05    11178.096    3.1868003    22.359184 
    8280 0.0040912602   -673.84618 4.4227967e-05    11178.097       3.1868    22.359184 
    8290 0.0045635337   -673.84612 4.9349898e-05    11178.098    3.1867997    22.359185 
    8300 0.0050904182   -673.84605 5.5061785e-05    11178.099    3.1867994    22.359186 
    8310 0.0056782259   -673.84598 6.1434593e-05      11178.1     3.186799    22.359187 
    8320 0.0063339955   -673.84589 6.8533595e-05    11178.102    3.1867986    22.359188 
    8330  0.007065575    -673.8458 7.6439663e-05    11178.104    3.1867981    22.359189 
    8340  0.007881713   -673.84569 8.5252403e-05    11178.106    3.1867975     22.35919 
    8350  0.008792161   -673.84557 9.5069143e-05    11178.108    3.1867969    22.359191 
    8360 0.0098077853   -673.84544 0.00010599331     11178.11    3.1867963    22.359193 
    8370  0.010940692   -673.84529 0.00011815331    11178.113    3.1867955    22.359195 
    8380  0.012204365   -673.84513 0.00013169005    11178.115    3.1867947    22.359197 
    8390  0.013613818   -673.84495 0.00014674306    11178.119    3.1867938    22.359199 
    8400  0.015185762   -673.84474 0.00016347456    11178.122    3.1867927    22.359201 
    8410  0.016938789   -673.84451 0.00018207325    11178.126    3.1867916    22.359204 
    8420  0.018893578   -673.84426 0.00020273238    11178.131    3.1867903    22.359207 
    8430  0.021073112   -673.84398 0.00022565651    11178.136    3.1867889     22.35921 
    8440  0.023502924   -673.84366 0.0002510837    11178.141    3.1867873    22.359214 
    8450  0.026211359   -673.84331 0.00027927046    11178.148    3.1867855    22.359218 
    8460  0.029229861   -673.84292 0.00031047655    11178.155    3.1867835    22.359223 
    8470  0.032593284   -673.84248 0.00034498716    11178.162    3.1867813    22.359228 
    8480  0.036340222   -673.84199 0.00038311724    11178.171    3.1867788    22.359234 
    8490  0.040513369   -673.84145 0.00042518533    11178.181    3.1867761     22.35924 
    8500  0.045159891   -673.84084 0.00047151457    11178.191     3.186773    22.359247 
    8510  0.050331828   -673.84016 0.00052245159    11178.203    3.1867696    22.359255 
    8520  0.056086504   -673.83941 0.00057834591    11178.217    3.1867658    22.359264 
    8530  0.062486956   -673.83857 0.00063952473    11178.232    3.1867616    22.359274 
    8540  0.069602358   -673.83763 0.00070630108    11178.248    3.1867569    22.359285 
    8550  0.077508449   -673.83659 0.0007789698    11178.266    3.1867517    22.359297 
    8560  0.086287935   -673.83543 0.00085776132    11178.287    3.1867458    22.359311 
    8570  0.096030859   -673.83413 0.00094281894     11178.31    3.1867393    22.359326 
    8580   0.10683492   -673.83269 0.0010341928    11178.335    3.1867321    22.359343 
    8590   0.11880567   -673.83108 0.0011317892    11178.363    3.1867241    22.359362 
[...]
  219050    106.21154   -517.25326   -37.799328    13148.197     2.709296    23.602359 
  219060    104.97153   -517.43295   -28.781738    13140.732    2.7108351    23.597891 
  219070    103.79947   -517.46394   -15.456748    13132.815    2.7124694    23.593151 
  219080    102.69554    -517.4882   0.48389845    13124.636    2.7141597    23.588252 
  219090    101.63206   -517.30758    20.606015    13116.438    2.7158562     23.58334 
  219100    100.57682    -517.0249    43.219011    13108.519    2.7174968    23.578593 
  219110    99.508293   -516.72297       66.741    13101.217    2.7190114    23.574214 
  219120    98.413622   -516.48229    89.566994    13094.876    2.7203282    23.570409 
  219130    97.299068    -515.8729    115.34152    13089.836    2.7213755    23.567385 
  219140    96.184784   -515.10789    141.03011    13086.483    2.7220727    23.565373 
  219150    95.088254   -514.44349    163.11832    13085.194    2.7223409    23.564599 
  219160    94.038905   -513.47837    184.91527    13086.313     2.722108    23.565271 
  219170    93.069375   -512.89257    198.63983    13090.167    2.7213067    23.567584 
  219180    92.213319   -512.25991    208.04673     13096.99     2.719889    23.571678 
  219190    91.512527   -511.25834    215.96102    13106.956    2.7178208    23.577656 
  219200    91.000716   -510.29666    217.78056    13120.202    2.7150769    23.585595 
  219210    90.713061   -509.49137    212.11299    13136.784    2.7116498    23.595528 
  219220    90.670074   -508.55786    201.86608    13156.668    2.7075517    23.607426 
  219230    90.881206   -507.69964    185.15617     13179.73    2.7028139    23.621212 
  219240    91.342397   -506.72594    164.33747    13205.765    2.6974855    23.636755 
  219250    92.024741   -506.24563    133.78051    13234.488    2.6916311    23.653879 
  219260    92.877671   -505.72858    99.719619    13265.481    2.6853424     23.67233 
  219270    93.837585    -505.1089    63.788594    13298.248    2.6787256    23.691805 
  219280     94.83694   -504.48897    25.981478    13332.256    2.6718928    23.711984 
  219290    95.813848   -503.79877    -11.90538    13366.928    2.6649623    23.732521 
  219300    96.722655   -503.24286   -50.844987    13401.674     2.658053    23.753066 
  219310    97.535739   -502.54058   -86.955693    13435.885     2.651285    23.773261 
  219320    98.234063    -502.0253   -122.64353    13468.972    2.6447719     23.79276 
  219330    98.816977   -501.45128    -154.5902    13500.352    2.6386245    23.811223 
  219340     99.28994   -500.72401   -181.16648    13529.489    2.6329419    23.828341 
  219350    99.665337   -499.99882   -203.40372    13555.922    2.6278078    23.843849 
  219360    99.955524   -499.65149   -224.66849     13579.26    2.6232917    23.857524 
  219370     100.1772    -499.1278   -239.18738    13599.151    2.6194546    23.869167 
  219380     100.3539   -498.68998   -249.40657    13615.331    2.6163418     23.87863 
  219390    100.50245   -498.17687   -253.70986    13627.614    2.6139836    23.885808 
  219400    100.64247   -497.72441   -253.52424    13635.905    2.6123941    23.890651 
  219410    100.79375   -497.39408   -249.62734    13640.193    2.6115729    23.893156 
  219420    100.97508   -497.14896   -241.88081    13640.527    2.6115089    23.893351 
  219430    101.20008   -496.89859   -229.69323     13637.03    2.6121787    23.891308 
  219440    101.48233   -496.84836   -215.43262    13629.885    2.6135481    23.887135 
  219450    101.83078   -496.85643   -198.06009    13619.315    2.6155765    23.880958 
  219460    102.25205   -496.80513    -176.8047    13605.599    2.6182133    23.872939 
  219470    102.74259   -497.30759   -158.18087    13589.068    2.6213983    23.863266 
  219480    103.29447   -497.74782    -136.5091    13570.045    2.6250731    23.852126 
  219490    103.89712   -498.22135   -113.14481    13548.869    2.6291759    23.839712 
  219500    104.53029    -498.9168   -90.422234    13525.914    2.6336379    23.826241 
  219510     105.1743   -499.53445   -65.801512    13501.555    2.6383893     23.81193 
  219520    105.80193   -500.26224   -41.602678    13476.181    2.6433571    23.797004 
  219530    106.38053   -501.16353   -18.893775    13450.183    2.6484666    23.781691 
  219540    106.86612   -502.32127    1.1177226     13423.92     2.653648    23.766202 
  219550    107.20928   -503.51993    20.310038    13397.714    2.6588385    23.750727 
  219560    107.35727   -504.26994    43.375144    13371.875    2.6639765    23.735448 
  219570     107.2547   -504.98576    65.862846    13346.743    2.6689927    23.720569 
  219580    106.86239   -505.64449    87.702731    13322.663    2.6738168    23.706295 
  219590    106.16123   -506.22581    108.78272    13299.972    2.6783786    23.692828 
  219600    105.16397   -506.86248    127.48069    13278.973    2.6826141    23.680352 
  219610    103.92257   -507.27642    146.39395    13259.931    2.6864664    23.669028 
  219620    102.51786   -507.63662     163.5425    13243.126    2.6898754    23.659025 
  219630    101.04981   -507.97509    178.31362    13228.812    2.6927859    23.650498 
  219640    99.614237   -508.20734    191.24051    13217.198    2.6951522    23.643574 
  219650    98.282714    -508.2758    202.46643    13208.466    2.6969339    23.638366 
  219660    97.100582   -508.34774    209.75227     13202.77    2.6980974    23.634968 
  219670    96.099654   -508.10689    215.78273    13200.224    2.6986177    23.633449 
  219680    95.294734   -507.94716    216.04939    13200.902    2.6984791    23.633854 
  219690     94.69672   -507.74676    211.47886    13204.814    2.6976798    23.636188 
  219700    94.304502   -507.69301    200.06615    13211.891    2.6962346     23.64041 
  219710    94.110608   -507.66984    183.17891    13221.973    2.6941788    23.646421 
  219720    94.097902   -507.52639    162.76864    13234.821    2.6915634    23.654078 
  219730    94.244493   -507.32626    138.78723    13250.145    2.6884505    23.663204 
  219740    94.529744   -507.32846    109.39835    13267.594    2.6849147    23.673587 
  219750    94.926887   -507.12368    79.709028    13286.742    2.6810454     23.68497 
  219760    95.401766    -507.0344    47.438384     13307.14    2.6769357    23.697084 
  219770    95.919391   -506.59676    18.274726    13328.323    2.6726813    23.709651 
  219780    96.446452   -506.23356   -11.124444    13349.831    2.6683752    23.722398 
  219790     96.95499   -505.97957   -40.258133    13371.214     2.664108    23.735057 
  219800    97.424102   -505.48229   -64.833942     13392.03    2.6599671    23.747367 
  219810    97.842422   -505.06069   -87.481048    13411.893    2.6560276    23.759102 
  219820    98.204499   -504.61954   -106.78188    13430.448    2.6523582    23.770054 
  219830    98.512546   -504.11914   -122.00694    13447.389    2.6490167    23.780044 
  219840    98.764914   -503.73665   -134.74359    13462.471    2.6460491    23.788931 
  219850    98.969652   -503.43481   -144.48871    13475.487    2.6434933    23.796595 
  219860    99.140623   -502.83649   -147.42713    13486.284    2.6413769    23.802949 
  219870    99.285567   -502.32013   -147.43672    13494.804    2.6397094     23.80796 
  219880    99.414105   -501.72418   -143.08164     13501.05    2.6384881    23.811633 
  219890    99.535796   -501.30396   -137.15629     13505.09    2.6376988    23.814008 
  219900    99.662528   -500.82459    -127.5796     13507.02    2.6373219    23.815142 
  219910    99.802166    -500.3674    -115.4626    13506.975    2.6373306    23.815116 
  219920    99.958783   -499.96139   -101.44364    13505.142    2.6376886    23.814039 
  219930    100.13354   -499.63353   -86.164395    13501.741    2.6383531    23.812039 
  219940    100.32265   -499.38264   -69.997381    13497.008    2.6392782    23.809257 
  219950    100.52591   -499.35763   -54.797662     13491.19    2.6404163    23.805835 
  219960    100.74375   -498.99583   -35.333416    13484.546    2.6417173    23.801927 
  219970     100.9698    -498.8105   -17.166874    13477.367    2.6431246    23.797702 
  219980    101.19974   -498.53032    1.9899509    13469.933    2.6445833    23.793325 
  219990    101.42563   -498.47123    18.546158    13462.536    2.6460364    23.788969 
  220000     101.6428    -498.2146    36.312061    13455.447    2.6474304    23.784793 
  220010    101.83967   -497.80314    54.499729    13448.934    2.6487125    23.780955 
  220020    102.00234   -497.67043    68.413454    13443.273    2.6498278    23.777618 
  220030    102.11894   -497.51468     80.81804    13438.687    2.6507322    23.774913 
  220040    102.17498   -497.35031    91.363609    13435.361    2.6513883    23.772952 
  220050    102.15715    -497.3148    98.501963    13433.456    2.6517644    23.771828 
  220060    102.05887   -496.93532    106.83995    13433.097    2.6518353    23.771616 
  220070    101.87713   -496.79725    110.37138      13434.4     2.651578    23.772385 
  220080    101.61822   -496.63179    111.70754    13437.429    2.6509803    23.774171 
  220090    101.29371   -496.34522    111.72278    13442.212    2.6500369    23.776992 
  220100    100.91943   -496.09208     108.8257    13448.749    2.6487489    23.780846 
  220110    100.51729   -495.78536    103.88644    13457.003    2.6471243     23.78571 
  220120    100.10987   -495.26494    98.543559    13466.908    2.6451772    23.791544 
  220130    99.717847   -494.98336    88.342857    13478.386    2.6429247    23.798301 
  220140    99.356749   -494.65248    76.351118    13491.292    2.6403965    23.805895 
  220150    99.040528   -494.20374    63.537025    13505.449    2.6376287    23.814219 
  220160    98.776344   -493.88212    47.813631    13520.661     2.634661    23.823157 
  220170     98.56667   -493.65633    29.959871    13536.686    2.6315422    23.832565 
  220180    98.411084   -493.36772    12.085274     13553.25     2.628326    23.842282 
  220190    98.316169   -493.13236   -6.3903528    13570.074    2.6250674    23.852143 
  220200    98.282495   -492.84276   -23.846943    13586.869    2.6218225    23.861979 
  220210    98.309741   -492.66497   -41.422154    13603.353    2.6186456    23.871625 
  220220    98.389927   -492.24829   -55.229423    13619.255     2.615588    23.880923 
  220230    98.517559   -491.83657   -67.378363    13634.351    2.6126919    23.889744 
  220240    98.688531   -491.60314   -79.342474    13648.438    2.6099953    23.897969 
  220250    98.895699   -491.35176   -89.002736    13661.318    2.6075346    23.905484 
  220260    99.140381   -491.18836   -97.250587    13672.819    2.6053412     23.91219 
  220270    99.416529   -490.62471   -99.220546    13682.819    2.6034371    23.918018 
  220280    99.721889   -490.30475   -101.26571    13691.266    2.6018309    23.922939 
  220290    100.04771   -489.76237   -98.840452    13698.126    2.6005279    23.926934 
  220300    100.38281   -489.43861   -96.379207     13703.42    2.5995232    23.930016 
  220310    100.71405   -489.08434   -91.556736    13707.193    2.5988076    23.932212 
  220320    101.03287   -488.65045   -84.035977    13709.521    2.5983665    23.933567 
  220330    101.32754   -488.30583   -75.683108    13710.512    2.5981786    23.934144 
  220340    101.59424   -488.22439   -68.439993      13710.3    2.5982187     23.93402 
  220350     101.8283    -487.9894   -58.472341     13709.01    2.5984633    23.933269 
  220360    102.03432   -487.85364   -48.558756    13706.785    2.5988851    23.931975 
  220370    102.22568   -487.63361      -37.237    13703.786    2.5994539    23.930229 
  220380     102.4134   -487.51224   -26.717039    13700.188    2.6001366    23.928134 
  220390    102.61871   -487.58179   -18.315364     13696.16    2.6009012    23.925789 
  220400    102.86086   -487.51617   -9.2083001    13691.845    2.6017208    23.923277 
  220410    103.15312   -487.74645   -3.9703875    13687.374    2.6025707    23.920672 
  220420    103.50116   -487.69247    2.8895494     13682.84    2.6034331    23.918031 
  220430    103.89452   -487.89244    5.9431187    13678.339    2.6042898    23.915408 
  220440    104.31196   -488.01854    8.4192694    13673.934    2.6051288     23.91284 
  220450     104.7234   -488.22858    8.8848814    13669.656    2.6059441    23.910346 
  220460    105.08908   -488.57534    6.9870141    13665.515    2.6067338    23.907931 
  220470    105.36839   -488.93963    4.1054603    13661.489     2.607502    23.905583 
  220480    105.53168    -489.2099     1.571873    13657.532    2.6082574    23.903275 
  220490    105.55554   -489.45007   -1.0501843    13653.603     2.609008    23.900983 
  220500    105.42139   -489.87298   -5.6907296    13649.655    2.6097626    23.898679 
  220510    105.11999    -489.7621   -5.1216374    13645.632     2.610532    23.896331 
  220520    104.65528   -489.90496   -6.9971392    13641.514    2.6113201    23.893926 
  220530     104.0315   -490.34679   -11.670954    13637.268    2.6121331    23.891447 
  220540    103.26418   -490.54542   -13.659705    13632.834    2.6129826    23.888858 
  220550    102.38019   -490.79591   -15.770147    13628.169     2.613877    23.886133 
  220560    101.41775   -491.10129   -17.948688    13623.238    2.6148232    23.883251 
  220570    100.42334   -491.29553   -18.496669    13618.009    2.6158273    23.880195 
  220580    99.448751    -491.5606      -19.205    13612.467    2.6168922    23.876955 
  220590    98.544567   -491.81035   -19.261287    13606.605    2.6180197    23.873527 
  220600    97.755749   -492.03382    -18.64561    13600.427    2.6192088    23.869914 
  220610    97.120065   -492.29507   -18.094955    13593.941    2.6204586    23.866118 
  220620    96.659996    -492.3831   -15.633895    13587.154    2.6217676    23.862146 
  220630    96.386933   -492.74731   -15.822537    13580.092     2.623131    23.858011 
  220640    96.295712   -492.94452   -14.325629    13572.758    2.6245484    23.853715 
  220650    96.377729   -493.56381   -16.972957     13565.15    2.6260202    23.849258 
  220660    96.613604   -493.98398   -17.525794    13557.241    2.6275522    23.844622 
  220670     96.97331   -494.51041   -18.944084    13549.017    2.6291472    23.839799 
  220680    97.428128   -495.15524   -21.240818    13540.451    2.6308104    23.834774 
  220690    97.950695   -495.75987   -22.716517    13531.514     2.632548    23.829529 
  220700    98.518377   -496.31696   -23.183042    13522.181    2.6343649    23.824049 
  220710    99.108249   -497.06422   -24.928463    13512.438    2.6362644    23.818326 
  220720    99.702546   -497.75254   -25.391888    13502.257    2.6382522    23.812343 
  220730    100.28451   -498.30434   -23.761687     13491.62    2.6403322    23.806088 
  220740    100.83821   -498.96245   -22.505049    13480.544    2.6425017    23.799571 
  220750    101.35257   -499.50681   -19.506306    13469.055    2.6447556    23.792809 
  220760    101.82183   -499.91753   -14.678981    13457.202    2.6470851    23.785827 
  220770    102.23795    -500.5426    -11.64956    13445.046    2.6494785    23.778663 
  220780    102.59502   -501.21652   -8.8746266    13432.637    2.6519259    23.771345 
  220790    102.87843   -501.64612   -3.5073888    13420.026    2.6544181    23.763904 
  220800    103.06066   -502.36586  -0.99864259     13407.27    2.6569435    23.756372 
  220810    103.10731   -503.02444    2.1420803    13394.415    2.6594934    23.748777 
  220820    102.97973   -503.54075    6.7326154    13381.508    2.6620587    23.741146 
  220830    102.62098   -503.89702    12.897266    13368.616    2.6646259    23.733519 
  220840    101.98328   -504.25409    18.941141    13355.829    2.6671769     23.72595 
  220850    101.02645   -504.37852    27.092675    13343.249    2.6696916    23.718499 
  220860    99.747325   -504.80615    31.829816    13330.979    2.6721488    23.711226 
  220870    98.195752   -504.85074    40.002434    13319.114    2.6745292     23.70419 
  220880    96.484217   -505.06303    45.986091    13307.772    2.6768087    23.697459 
  220890    94.769851   -505.16719    52.551012    13297.043    2.6789685    23.691089 
  220900     93.21299    -505.3595    57.601431     13287.03    2.6809872    23.685141 
  220910    91.935183   -505.64088    60.909475    13277.815    2.6828481    23.679664 
  220920    91.011999   -505.72055    65.124756    13269.456    2.6845381    23.674694 
  220930      90.4705   -505.71979    68.638725    13262.019    2.6860434     23.67027 
  220940    90.305839   -505.87664    68.690864    13255.556    2.6873532    23.666424 
  220950    90.496299   -506.25118     64.48623    13250.068    2.6884662    23.663158 
  220960    91.002798   -506.84071    56.063075    13245.502    2.6893929     23.66044 
  220970    91.775078    -507.5832    44.270501    13241.747    2.6901555    23.658204 
  220980    92.760596   -508.16647    32.690836    13238.641    2.6907867    23.656354 
  220990    93.901532   -508.91087    18.540759    13236.011    2.6913213    23.654787 
  221000    95.142812   -509.40121    6.5762467    13233.655    2.6918004    23.653384 
  221010     96.43466   -510.08517   -7.2681123    13231.384    2.6922626     23.65203 
  221020    97.738092   -510.55859   -18.423803    13229.003     2.692747    23.650612 
  221030    99.019881   -511.23186   -30.676735    13226.333    2.6932907     23.64902 
  221040    100.25164   -511.70702   -39.629357    13223.192    2.6939304    23.647148 
  221050    101.40163   -512.29494    -48.16734    13219.427    2.6946977    23.644903 
  221060    102.45077     -512.725   -53.276586    13214.911    2.6956186     23.64221 
  221070    103.37603   -513.18849   -56.718332    13209.555    2.6967114    23.639016 
  221080    104.16093   -513.53591   -56.816549    13203.299    2.6979893    23.635284 
  221090    104.79209    -513.8882   -54.739991    13196.126    2.6994558    23.631003 
  221100    105.25411   -514.19092   -49.968148    13188.054     2.701108    23.626184 
  221110    105.54173   -514.41996   -42.383386    13179.147    2.7029336    23.620863 
  221120    105.65813   -514.82606   -34.761199    13169.501    2.7049133    23.615099 
  221130    105.60989   -515.36591   -26.926662    13159.223     2.707026    23.608954 
  221140    105.41142   -515.68142   -15.499075    13148.425    2.7092492    23.602495 
  221150    105.07923   -515.75732   -0.6819046    13137.264    2.7115507    23.595815 
  221160    104.62599   -515.91822    13.746672    13125.951    2.7138878     23.58904 
  221170    104.06834   -516.14599    27.522956      13114.7     2.716216    23.582298 
  221180     103.4224   -516.22321     42.46244     13103.71    2.7184942    23.575709 
  221182    103.28358   -516.32161    44.512036    13101.562    2.7189398    23.574421 
Loop time of 11.0088 on 1 procs for 100000 steps with 256 atoms

Performance: 784.828 ns/day, 0.031 hours/ns, 9083.656 timesteps/s
97.1% CPU use with 1 MPI tasks x no OpenMP threads

MPI task timing breakdown:
Section |  min time  |  avg time  |  max time  |%varavg| %total
---------------------------------------------------------------
Pair    | 8.923      | 8.923      | 8.923      |   0.0 | 81.05
Neigh   | 0.25989    | 0.25989    | 0.25989    |   0.0 |  2.36
Comm    | 0.43796    | 0.43796    | 0.43796    |   0.0 |  3.98
Output  | 0.077136   | 0.077136   | 0.077136   |   0.0 |  0.70
Modify  | 1.1419     | 1.1419     | 1.1419     |   0.0 | 10.37
Other   |            | 0.1688     |            |       |  1.53

Nlocal:    256 ave 256 max 256 min
Histogram: 1 0 0 0 0 0 0 0 0 0
Nghost:    851 ave 851 max 851 min
Histogram: 1 0 0 0 0 0 0 0 0 0
Neighs:    5556 ave 5556 max 5556 min
Histogram: 1 0 0 0 0 0 0 0 0 0

Total # of neighbors = 5556
Ave neighs/atom = 21.7031
Neighbor list builds = 863
Dangerous builds = 0
Total wall time: 0:00:25
