LAMMPS (7 Aug 2019)
# initialisation
units		metal
dimension       3
processors      * * *
boundary        p p p
atom_style	atomic

# create box
lattice         fcc 3.615
Lattice spacing in x,y,z = 3.615 3.615 3.615
region		box block 0 10 0 10 0 10
create_box	1 box
Created orthogonal box = (0 0 0) to (36.15 36.15 36.15)
  1 by 1 by 1 MPI processor grid
create_atoms	1 box
Created 4000 atoms
  create_atoms CPU = 0.00105214 secs

# potential
pair_style	eam
pair_coeff	* * Cu_u3.eam
neighbor        0.3 bin

# remove one atom
group		myatom id 1
1 atoms in group myatom
delete_atoms	group myatom
Deleted 1 atoms, new total = 3999

# define outputs
dump            2 all custom 10 md.lammpstrj id x y z
thermo          10
thermo_style    custom step etotal vol density press pxx lx

# initial relaxation of the box and of the atomic potions
fix             3 all box/relax iso 0.0
min_style       cg
minimize        1.0e-10 1.0e-10 100000 100000
WARNING: Using 'neigh_modify every 1 delay 0 check yes' setting during minimization (../min.cpp:168)
Neighbor list info ...
  update every 1 steps, delay 0 steps, check yes
  max neighbors/atom: 2000, page size: 100000
  master list distance cutoff = 5.25
  ghost atom cutoff = 5.25
  binsize = 2.625, bins = 14 14 14
  1 neighbor lists, perpetual/occasional/extra = 1 0 0
  (1) pair eam, perpetual
      attributes: half, newton on
      pair build: half/bin/atomonly/newton
      stencil: half/bin/3d/newton
      bin: standard
Per MPI rank memory allocation (min/avg/max) = 6.383 | 6.383 | 6.383 Mbytes
Step TotEng Volume Density Press Pxx Lx 
       0   -14155.143    47241.633    8.9328721   -68.113762   -68.113762        36.15 
       3   -14155.168    47238.661    8.9334341    2.0822425    2.0822425    36.149242 
Loop time of 0.0432582 on 1 procs for 3 steps with 3999 atoms

98.7% CPU use with 1 MPI tasks x no OpenMP threads

Minimization stats:
  Stopping criterion = energy tolerance
  Energy initial, next-to-last, final = 
        -14155.1434695     -14155.1676722     -14155.1676734
  Force two-norm initial, final = 6.05017 0.298469
  Force max component initial, final = 6.02519 0.184183
  Final line search alpha, max atom move = 0.000132364 2.43792e-05
  Iterations, force evaluations = 3 6

MPI task timing breakdown:
Section |  min time  |  avg time  |  max time  |%varavg| %total
---------------------------------------------------------------
Pair    | 0.037832   | 0.037832   | 0.037832   |   0.0 | 87.46
Neigh   | 0          | 0          | 0          |   0.0 |  0.00
Comm    | 0.00017381 | 0.00017381 | 0.00017381 |   0.0 |  0.40
Output  | 0          | 0          | 0          |   0.0 |  0.00
Modify  | 0          | 0          | 0          |   0.0 |  0.00
Other   |            | 0.005252   |            |       | 12.14

Nlocal:    3999 ave 3999 max 3999 min
Histogram: 1 0 0 0 0 0 0 0 0 0
Nghost:    3806 ave 3806 max 3806 min
Histogram: 1 0 0 0 0 0 0 0 0 0
Neighs:    107946 ave 107946 max 107946 min
Histogram: 1 0 0 0 0 0 0 0 0 0

Total # of neighbors = 107946
Ave neighs/atom = 26.9932
Neighbor list builds = 0
Dangerous builds = 0
unfix           3

# calculate the defornation of the box for a strain of 0.1%
variable        lxInst equal lx
variable        lx0 equal ${lxInst}		# store the initial length of the box
variable        lx0 equal 36.1492418294559		
variable        dx equal (${lx0}*0.1/100)	# elongation for a train of 0.1%
variable        dx equal (36.1492418294559*0.1/100)	

# initially compress by 1.1% the simulation box along the x axis
variable        lxMin equal (${lx0}*0.989)			# calculate initial length of the box
variable        lxMin equal (36.1492418294559*0.989)			
change_box	all x final 0.0 ${lxMin} remap units box	# deform the box
change_box	all x final 0.0 35.7516001693319 remap units box	
  orthogonal box = (0 0.000379085 0.000379085) to (35.7516 36.1496 36.1496)

# expand the box by steps of 0.1% strain
variable        myLoop loop 500				# number of deformation to perform

label           loop					# beginning of the loop
change_box      all x delta 0.0 ${dx} remap units box	# deform the box
change_box      all x delta 0.0 0.0361492418294559 remap units box	
  orthogonal box = (0 0.000379085 0.000379085) to (35.7877 36.1496 36.1496)
minimize        1.0e-10 1.0e-10 100000 100000		# minimize the energy
WARNING: Using 'neigh_modify every 1 delay 0 check yes' setting during minimization (../min.cpp:168)
Per MPI rank memory allocation (min/avg/max) = 6.383 | 6.383 | 6.383 Mbytes
Step TotEng Volume Density Press Pxx Lx 
       3   -14152.665    46766.274    9.0236708    14254.354    17095.742    35.787749 
      10   -14152.677    46766.274    9.0236708    14245.809    17083.379    35.787749 
      17   -14152.677    46766.274    9.0236708    14245.767    17083.265    35.787749 
Loop time of 0.160868 on 1 procs for 14 steps with 3999 atoms

99.2% CPU use with 1 MPI tasks x no OpenMP threads

Minimization stats:
  Stopping criterion = energy tolerance
  Energy initial, next-to-last, final = 
        -14152.6654927     -14152.6769711     -14152.6769724
  Force two-norm initial, final = 0.263187 0.0029189
  Force max component initial, final = 0.031188 0.000193457
  Final line search alpha, max atom move = 1 0.000193457
  Iterations, force evaluations = 14 28

MPI task timing breakdown:
Section |  min time  |  avg time  |  max time  |%varavg| %total
---------------------------------------------------------------
Pair    | 0.15016    | 0.15016    | 0.15016    |   0.0 | 93.34
Neigh   | 0          | 0          | 0          |   0.0 |  0.00
Comm    | 0.0007422  | 0.0007422  | 0.0007422  |   0.0 |  0.46
Output  | 0.004019   | 0.004019   | 0.004019   |   0.0 |  2.50
Modify  | 0          | 0          | 0          |   0.0 |  0.00
Other   |            | 0.005951   |            |       |  3.70

Nlocal:    3999 ave 3999 max 3999 min
Histogram: 1 0 0 0 0 0 0 0 0 0
Nghost:    3806 ave 3806 max 3806 min
Histogram: 1 0 0 0 0 0 0 0 0 0
Neighs:    107946 ave 107946 max 107946 min
Histogram: 1 0 0 0 0 0 0 0 0 0

Total # of neighbors = 107946
Ave neighs/atom = 26.9932
Neighbor list builds = 0
Dangerous builds = 0

next            myLoop					# increment deformation step
jump            in.elastic loop				# end of the loop
change_box      all x delta 0.0 ${dx} remap units box	# deform the box
change_box      all x delta 0.0 0.0361492418294559 remap units box	
  orthogonal box = (0 0.000379085 0.000379085) to (35.8239 36.1496 36.1496)
minimize        1.0e-10 1.0e-10 100000 100000		# minimize the energy
WARNING: Using 'neigh_modify every 1 delay 0 check yes' setting during minimization (../min.cpp:168)
Per MPI rank memory allocation (min/avg/max) = 6.383 | 6.383 | 6.383 Mbytes
Step TotEng Volume Density Press Pxx Lx 
      17   -14153.155    46813.513    9.0145652    12783.675    15340.106    35.823899 
      20   -14153.155    46813.513    9.0145652     12783.87    15340.652    35.823899 
Loop time of 0.0445499 on 1 procs for 3 steps with 3999 atoms

98.5% CPU use with 1 MPI tasks x no OpenMP threads

Minimization stats:
  Stopping criterion = energy tolerance
  Energy initial, next-to-last, final = 
        -14153.1549401      -14153.154948     -14153.1549493
  Force two-norm initial, final = 0.00846034 0.0027928
  Force max component initial, final = 0.00212261 0.000476841
  Final line search alpha, max atom move = 1 0.000476841
  Iterations, force evaluations = 3 6

MPI task timing breakdown:
Section |  min time  |  avg time  |  max time  |%varavg| %total
---------------------------------------------------------------
Pair    | 0.040247   | 0.040247   | 0.040247   |   0.0 | 90.34
Neigh   | 0          | 0          | 0          |   0.0 |  0.00
Comm    | 0.00021386 | 0.00021386 | 0.00021386 |   0.0 |  0.48
Output  | 0          | 0          | 0          |   0.0 |  0.00
Modify  | 0          | 0          | 0          |   0.0 |  0.00
Other   |            | 0.004089   |            |       |  9.18

Nlocal:    3999 ave 3999 max 3999 min
Histogram: 1 0 0 0 0 0 0 0 0 0
Nghost:    3806 ave 3806 max 3806 min
Histogram: 1 0 0 0 0 0 0 0 0 0
Neighs:    107946 ave 107946 max 107946 min
Histogram: 1 0 0 0 0 0 0 0 0 0

Total # of neighbors = 107946
Ave neighs/atom = 26.9932
Neighbor list builds = 0
Dangerous builds = 0

next            myLoop					# increment deformation step
jump            in.elastic loop				# end of the loop
change_box      all x delta 0.0 ${dx} remap units box	# deform the box
change_box      all x delta 0.0 0.0361492418294559 remap units box	
  orthogonal box = (0 0.000379085 0.000379085) to (35.86 36.1496 36.1496)
minimize        1.0e-10 1.0e-10 100000 100000		# minimize the energy
WARNING: Using 'neigh_modify every 1 delay 0 check yes' setting during minimization (../min.cpp:168)
Per MPI rank memory allocation (min/avg/max) = 6.383 | 6.383 | 6.383 Mbytes
Step TotEng Volume Density Press Pxx Lx 
      20   -14153.582    46860.752    9.0054779    11330.083    13605.069    35.860048 
      24   -14153.582    46860.752    9.0054779    11330.275    13605.704    35.860048 
Loop time of 0.051368 on 1 procs for 4 steps with 3999 atoms

99.3% CPU use with 1 MPI tasks x no OpenMP threads

Minimization stats:
  Stopping criterion = energy tolerance
  Energy initial, next-to-last, final = 
        -14153.5816493     -14153.5816593     -14153.5816603
  Force two-norm initial, final = 0.00834426 0.00238024
  Force max component initial, final = 0.00202559 0.000254972
  Final line search alpha, max atom move = 1 0.000254972
  Iterations, force evaluations = 4 8

MPI task timing breakdown:
Section |  min time  |  avg time  |  max time  |%varavg| %total
---------------------------------------------------------------
Pair    | 0.046935   | 0.046935   | 0.046935   |   0.0 | 91.37
Neigh   | 0          | 0          | 0          |   0.0 |  0.00
Comm    | 0.00021982 | 0.00021982 | 0.00021982 |   0.0 |  0.43
Output  | 0          | 0          | 0          |   0.0 |  0.00
Modify  | 0          | 0          | 0          |   0.0 |  0.00
Other   |            | 0.004213   |            |       |  8.20

Nlocal:    3999 ave 3999 max 3999 min
Histogram: 1 0 0 0 0 0 0 0 0 0
Nghost:    3806 ave 3806 max 3806 min
Histogram: 1 0 0 0 0 0 0 0 0 0
Neighs:    107946 ave 107946 max 107946 min
Histogram: 1 0 0 0 0 0 0 0 0 0

Total # of neighbors = 107946
Ave neighs/atom = 26.9932
Neighbor list builds = 0
Dangerous builds = 0

next            myLoop					# increment deformation step
jump            in.elastic loop				# end of the loop
change_box      all x delta 0.0 ${dx} remap units box	# deform the box
change_box      all x delta 0.0 0.0361492418294559 remap units box	
  orthogonal box = (0 0.000379085 0.000379085) to (35.8962 36.1496 36.1496)
minimize        1.0e-10 1.0e-10 100000 100000		# minimize the energy
WARNING: Using 'neigh_modify every 1 delay 0 check yes' setting during minimization (../min.cpp:168)
Per MPI rank memory allocation (min/avg/max) = 6.383 | 6.383 | 6.383 Mbytes
Step TotEng Volume Density Press Pxx Lx 
      24   -14153.957     46907.99     8.996409    9884.7674    11877.693    35.896197 
      28   -14153.957     46907.99     8.996409    9884.9621    11878.284    35.896197 
Loop time of 0.051527 on 1 procs for 4 steps with 3999 atoms

99.0% CPU use with 1 MPI tasks x no OpenMP threads

Minimization stats:
  Stopping criterion = energy tolerance
  Energy initial, next-to-last, final = 
        -14153.9573187     -14153.9573268     -14153.9573278
  Force two-norm initial, final = 0.00776962 0.00223496
  Force max component initial, final = 0.00198388 0.000229358
  Final line search alpha, max atom move = 1 0.000229358
  Iterations, force evaluations = 4 8

MPI task timing breakdown:
Section |  min time  |  avg time  |  max time  |%varavg| %total
---------------------------------------------------------------
Pair    | 0.047166   | 0.047166   | 0.047166   |   0.0 | 91.54
Neigh   | 0          | 0          | 0          |   0.0 |  0.00
Comm    | 0.00020981 | 0.00020981 | 0.00020981 |   0.0 |  0.41
Output  | 0          | 0          | 0          |   0.0 |  0.00
Modify  | 0          | 0          | 0          |   0.0 |  0.00
Other   |            | 0.004151   |            |       |  8.06

Nlocal:    3999 ave 3999 max 3999 min
Histogram: 1 0 0 0 0 0 0 0 0 0
Nghost:    3806 ave 3806 max 3806 min
Histogram: 1 0 0 0 0 0 0 0 0 0
Neighs:    107946 ave 107946 max 107946 min
Histogram: 1 0 0 0 0 0 0 0 0 0

Total # of neighbors = 107946
Ave neighs/atom = 26.9932
Neighbor list builds = 0
Dangerous builds = 0

next            myLoop					# increment deformation step
jump            in.elastic loop				# end of the loop
change_box      all x delta 0.0 ${dx} remap units box	# deform the box
change_box      all x delta 0.0 0.0361492418294559 remap units box	
  orthogonal box = (0 0.000379085 0.000379085) to (35.9323 36.1496 36.1496)
minimize        1.0e-10 1.0e-10 100000 100000		# minimize the energy
WARNING: Using 'neigh_modify every 1 delay 0 check yes' setting during minimization (../min.cpp:168)
Per MPI rank memory allocation (min/avg/max) = 6.383 | 6.383 | 6.383 Mbytes
Step TotEng Volume Density Press Pxx Lx 
      28   -14154.282    46955.229    8.9873583     8447.678    10157.809    35.932346 
      30   -14154.282    46955.229    8.9873583    8447.8655    10158.229    35.932346 
      31   -14154.282    46955.229    8.9873583    8447.8577    10158.322    35.932346 
Loop time of 0.044353 on 1 procs for 3 steps with 3999 atoms

98.5% CPU use with 1 MPI tasks x no OpenMP threads

Minimization stats:
  Stopping criterion = energy tolerance
  Energy initial, next-to-last, final = 
        -14154.2821659     -14154.2821721     -14154.2821735
  Force two-norm initial, final = 0.00741798 0.00288914
  Force max component initial, final = 0.0018967 0.000494183
  Final line search alpha, max atom move = 1 0.000494183
  Iterations, force evaluations = 3 6

MPI task timing breakdown:
Section |  min time  |  avg time  |  max time  |%varavg| %total
---------------------------------------------------------------
Pair    | 0.036792   | 0.036792   | 0.036792   |   0.0 | 82.95
Neigh   | 0          | 0          | 0          |   0.0 |  0.00
Comm    | 0.00016665 | 0.00016665 | 0.00016665 |   0.0 |  0.38
Output  | 0.0034299  | 0.0034299  | 0.0034299  |   0.0 |  7.73
Modify  | 0          | 0          | 0          |   0.0 |  0.00
Other   |            | 0.003964   |            |       |  8.94

Nlocal:    3999 ave 3999 max 3999 min
Histogram: 1 0 0 0 0 0 0 0 0 0
Nghost:    3806 ave 3806 max 3806 min
Histogram: 1 0 0 0 0 0 0 0 0 0
Neighs:    107946 ave 107946 max 107946 min
Histogram: 1 0 0 0 0 0 0 0 0 0

Total # of neighbors = 107946
Ave neighs/atom = 26.9932
Neighbor list builds = 0
Dangerous builds = 0

next            myLoop					# increment deformation step
jump            in.elastic loop				# end of the loop
change_box      all x delta 0.0 ${dx} remap units box	# deform the box
change_box      all x delta 0.0 0.0361492418294559 remap units box	
  orthogonal box = (0 0.000379085 0.000379085) to (35.9685 36.1496 36.1496)
minimize        1.0e-10 1.0e-10 100000 100000		# minimize the energy
WARNING: Using 'neigh_modify every 1 delay 0 check yes' setting during minimization (../min.cpp:168)
Per MPI rank memory allocation (min/avg/max) = 6.383 | 6.383 | 6.383 Mbytes
Step TotEng Volume Density Press Pxx Lx 
      31   -14154.556    47002.468    8.9783257    7018.7778     8445.392    35.968496 
      35   -14154.556    47002.468    8.9783257    7018.9656    8446.0123    35.968496 
Loop time of 0.0559111 on 1 procs for 4 steps with 3999 atoms

98.5% CPU use with 1 MPI tasks x no OpenMP threads

Minimization stats:
  Stopping criterion = energy tolerance
  Energy initial, next-to-last, final = 
        -14154.5564114     -14154.5564208     -14154.5564219
  Force two-norm initial, final = 0.00818812 0.00245624
  Force max component initial, final = 0.00195425 0.000254229
  Final line search alpha, max atom move = 1 0.000254229
  Iterations, force evaluations = 4 8

MPI task timing breakdown:
Section |  min time  |  avg time  |  max time  |%varavg| %total
---------------------------------------------------------------
Pair    | 0.05073    | 0.05073    | 0.05073    |   0.0 | 90.73
Neigh   | 0          | 0          | 0          |   0.0 |  0.00
Comm    | 0.00021982 | 0.00021982 | 0.00021982 |   0.0 |  0.39
Output  | 0          | 0          | 0          |   0.0 |  0.00
Modify  | 0          | 0          | 0          |   0.0 |  0.00
Other   |            | 0.004961   |            |       |  8.87

Nlocal:    3999 ave 3999 max 3999 min
Histogram: 1 0 0 0 0 0 0 0 0 0
Nghost:    3806 ave 3806 max 3806 min
Histogram: 1 0 0 0 0 0 0 0 0 0
Neighs:    107946 ave 107946 max 107946 min
Histogram: 1 0 0 0 0 0 0 0 0 0

Total # of neighbors = 107946
Ave neighs/atom = 26.9932
Neighbor list builds = 0
Dangerous builds = 0

next            myLoop					# increment deformation step
jump            in.elastic loop				# end of the loop
change_box      all x delta 0.0 ${dx} remap units box	# deform the box
change_box      all x delta 0.0 0.0361492418294559 remap units box	
  orthogonal box = (0 0.000379085 0.000379085) to (36.0046 36.1496 36.1496)
minimize        1.0e-10 1.0e-10 100000 100000		# minimize the energy
WARNING: Using 'neigh_modify every 1 delay 0 check yes' setting during minimization (../min.cpp:168)
Per MPI rank memory allocation (min/avg/max) = 6.383 | 6.383 | 6.383 Mbytes
Step TotEng Volume Density Press Pxx Lx 
      35    -14154.78    47049.706    8.9693114    5598.0419    6740.5886    36.004645 
      39    -14154.78    47049.706    8.9693114    5598.2306    6741.1652    36.004645 
Loop time of 0.0629969 on 1 procs for 4 steps with 3999 atoms

97.1% CPU use with 1 MPI tasks x no OpenMP threads

Minimization stats:
  Stopping criterion = energy tolerance
  Energy initial, next-to-last, final = 
         -14154.780285     -14154.7802927     -14154.7802938
  Force two-norm initial, final = 0.00755652 0.00231921
  Force max component initial, final = 0.00190062 0.000209567
  Final line search alpha, max atom move = 1 0.000209567
  Iterations, force evaluations = 4 8

MPI task timing breakdown:
Section |  min time  |  avg time  |  max time  |%varavg| %total
---------------------------------------------------------------
Pair    | 0.055856   | 0.055856   | 0.055856   |   0.0 | 88.66
Neigh   | 0          | 0          | 0          |   0.0 |  0.00
Comm    | 0.00033212 | 0.00033212 | 0.00033212 |   0.0 |  0.53
Output  | 0          | 0          | 0          |   0.0 |  0.00
Modify  | 0          | 0          | 0          |   0.0 |  0.00
Other   |            | 0.006809   |            |       | 10.81

Nlocal:    3999 ave 3999 max 3999 min
Histogram: 1 0 0 0 0 0 0 0 0 0
Nghost:    3806 ave 3806 max 3806 min
Histogram: 1 0 0 0 0 0 0 0 0 0
Neighs:    107946 ave 107946 max 107946 min
Histogram: 1 0 0 0 0 0 0 0 0 0

Total # of neighbors = 107946
Ave neighs/atom = 26.9932
Neighbor list builds = 0
Dangerous builds = 0

next            myLoop					# increment deformation step
jump            in.elastic loop				# end of the loop
change_box      all x delta 0.0 ${dx} remap units box	# deform the box
change_box      all x delta 0.0 0.0361492418294559 remap units box	
  orthogonal box = (0 0.000379085 0.000379085) to (36.0408 36.1496 36.1496)
minimize        1.0e-10 1.0e-10 100000 100000		# minimize the energy
WARNING: Using 'neigh_modify every 1 delay 0 check yes' setting during minimization (../min.cpp:168)
Per MPI rank memory allocation (min/avg/max) = 6.383 | 6.383 | 6.383 Mbytes
Step TotEng Volume Density Press Pxx Lx 
      39   -14154.954    47096.945    8.9603151    4185.3672     5043.136    36.040794 
      40   -14154.954    47096.945    8.9603151    4185.5375    5043.4312    36.040794 
      42   -14154.954    47096.945    8.9603151    4185.5416    5043.6288    36.040794 
Loop time of 0.0471258 on 1 procs for 3 steps with 3999 atoms

99.1% CPU use with 1 MPI tasks x no OpenMP threads

Minimization stats:
  Stopping criterion = energy tolerance
  Energy initial, next-to-last, final = 
        -14154.9540001      -14154.954006     -14154.9540073
  Force two-norm initial, final = 0.00725852 0.00290311
  Force max component initial, final = 0.00183801 0.000532657
  Final line search alpha, max atom move = 1 0.000532657
  Iterations, force evaluations = 3 6

MPI task timing breakdown:
Section |  min time  |  avg time  |  max time  |%varavg| %total
---------------------------------------------------------------
Pair    | 0.039148   | 0.039148   | 0.039148   |   0.0 | 83.07
Neigh   | 0          | 0          | 0          |   0.0 |  0.00
Comm    | 0.0001893  | 0.0001893  | 0.0001893  |   0.0 |  0.40
Output  | 0.0037429  | 0.0037429  | 0.0037429  |   0.0 |  7.94
Modify  | 0          | 0          | 0          |   0.0 |  0.00
Other   |            | 0.004046   |            |       |  8.58

Nlocal:    3999 ave 3999 max 3999 min
Histogram: 1 0 0 0 0 0 0 0 0 0
Nghost:    3806 ave 3806 max 3806 min
Histogram: 1 0 0 0 0 0 0 0 0 0
Neighs:    107946 ave 107946 max 107946 min
Histogram: 1 0 0 0 0 0 0 0 0 0

Total # of neighbors = 107946
Ave neighs/atom = 26.9932
Neighbor list builds = 0
Dangerous builds = 0

next            myLoop					# increment deformation step
jump            in.elastic loop				# end of the loop
change_box      all x delta 0.0 ${dx} remap units box	# deform the box
change_box      all x delta 0.0 0.0361492418294559 remap units box	
  orthogonal box = (0 0.000379085 0.000379085) to (36.0769 36.1496 36.1496)
minimize        1.0e-10 1.0e-10 100000 100000		# minimize the energy
WARNING: Using 'neigh_modify every 1 delay 0 check yes' setting during minimization (../min.cpp:168)
Per MPI rank memory allocation (min/avg/max) = 6.383 | 6.383 | 6.383 Mbytes
Step TotEng Volume Density Press Pxx Lx 
      42   -14155.078    47144.184    8.9513368    2780.7162    3352.9915    36.076943 
      46   -14155.078    47144.184    8.9513368     2780.899    3353.5966    36.076943 
Loop time of 0.051465 on 1 procs for 4 steps with 3999 atoms

99.4% CPU use with 1 MPI tasks x no OpenMP threads

Minimization stats:
  Stopping criterion = energy tolerance
  Energy initial, next-to-last, final = 
        -14155.0777724     -14155.0777816     -14155.0777827
  Force two-norm initial, final = 0.00808846 0.00254316
  Force max component initial, final = 0.00193876 0.000276288
  Final line search alpha, max atom move = 1 0.000276288
  Iterations, force evaluations = 4 8

MPI task timing breakdown:
Section |  min time  |  avg time  |  max time  |%varavg| %total
---------------------------------------------------------------
Pair    | 0.04715    | 0.04715    | 0.04715    |   0.0 | 91.62
Neigh   | 0          | 0          | 0          |   0.0 |  0.00
Comm    | 0.0002017  | 0.0002017  | 0.0002017  |   0.0 |  0.39
Output  | 0          | 0          | 0          |   0.0 |  0.00
Modify  | 0          | 0          | 0          |   0.0 |  0.00
Other   |            | 0.004113   |            |       |  7.99

Nlocal:    3999 ave 3999 max 3999 min
Histogram: 1 0 0 0 0 0 0 0 0 0
Nghost:    3806 ave 3806 max 3806 min
Histogram: 1 0 0 0 0 0 0 0 0 0
Neighs:    107946 ave 107946 max 107946 min
Histogram: 1 0 0 0 0 0 0 0 0 0

Total # of neighbors = 107946
Ave neighs/atom = 26.9932
Neighbor list builds = 0
Dangerous builds = 0

next            myLoop					# increment deformation step
jump            in.elastic loop				# end of the loop
change_box      all x delta 0.0 ${dx} remap units box	# deform the box
change_box      all x delta 0.0 0.0361492418294559 remap units box	
  orthogonal box = (0 0.000379085 0.000379085) to (36.1131 36.1496 36.1496)
minimize        1.0e-10 1.0e-10 100000 100000		# minimize the energy
WARNING: Using 'neigh_modify every 1 delay 0 check yes' setting during minimization (../min.cpp:168)
Per MPI rank memory allocation (min/avg/max) = 6.383 | 6.383 | 6.383 Mbytes
Step TotEng Volume Density Press Pxx Lx 
      46   -14155.152    47191.422    8.9423765    1384.1003    1670.3683    36.113093 
      50   -14155.152    47191.422    8.9423765    1384.2851    1670.9308    36.113093 
Loop time of 0.0566318 on 1 procs for 4 steps with 3999 atoms

98.4% CPU use with 1 MPI tasks x no OpenMP threads

Minimization stats:
  Stopping criterion = energy tolerance
  Energy initial, next-to-last, final = 
        -14155.1518279     -14155.1518354     -14155.1518366
  Force two-norm initial, final = 0.00743964 0.00242201
  Force max component initial, final = 0.00186995 0.000223716
  Final line search alpha, max atom move = 1 0.000223716
  Iterations, force evaluations = 4 8

MPI task timing breakdown:
Section |  min time  |  avg time  |  max time  |%varavg| %total
---------------------------------------------------------------
Pair    | 0.051922   | 0.051922   | 0.051922   |   0.0 | 91.68
Neigh   | 0          | 0          | 0          |   0.0 |  0.00
Comm    | 0.00026774 | 0.00026774 | 0.00026774 |   0.0 |  0.47
Output  | 0          | 0          | 0          |   0.0 |  0.00
Modify  | 0          | 0          | 0          |   0.0 |  0.00
Other   |            | 0.004442   |            |       |  7.84

Nlocal:    3999 ave 3999 max 3999 min
Histogram: 1 0 0 0 0 0 0 0 0 0
Nghost:    3806 ave 3806 max 3806 min
Histogram: 1 0 0 0 0 0 0 0 0 0
Neighs:    107946 ave 107946 max 107946 min
Histogram: 1 0 0 0 0 0 0 0 0 0

Total # of neighbors = 107946
Ave neighs/atom = 26.9932
Neighbor list builds = 0
Dangerous builds = 0

next            myLoop					# increment deformation step
jump            in.elastic loop				# end of the loop
change_box      all x delta 0.0 ${dx} remap units box	# deform the box
change_box      all x delta 0.0 0.0361492418294559 remap units box	
  orthogonal box = (0 0.000379085 0.000379085) to (36.1492 36.1496 36.1496)
minimize        1.0e-10 1.0e-10 100000 100000		# minimize the energy
WARNING: Using 'neigh_modify every 1 delay 0 check yes' setting during minimization (../min.cpp:168)
Per MPI rank memory allocation (min/avg/max) = 6.383 | 6.383 | 6.383 Mbytes
Step TotEng Volume Density Press Pxx Lx 
      50   -14155.176    47238.661    8.9334341   -4.5185871   -4.8953548    36.149242 
      53   -14155.176    47238.661    8.9334341   -4.3487322   -4.4222915    36.149242 
Loop time of 0.0412669 on 1 procs for 3 steps with 3999 atoms

99.3% CPU use with 1 MPI tasks x no OpenMP threads

Minimization stats:
  Stopping criterion = energy tolerance
  Energy initial, next-to-last, final = 
        -14155.1763792     -14155.1763848     -14155.1763861
  Force two-norm initial, final = 0.00710607 0.00289704
  Force max component initial, final = 0.00179917 0.000464924
  Final line search alpha, max atom move = 1 0.000464924
  Iterations, force evaluations = 3 6

MPI task timing breakdown:
Section |  min time  |  avg time  |  max time  |%varavg| %total
---------------------------------------------------------------
Pair    | 0.037075   | 0.037075   | 0.037075   |   0.0 | 89.84
Neigh   | 0          | 0          | 0          |   0.0 |  0.00
Comm    | 0.0001657  | 0.0001657  | 0.0001657  |   0.0 |  0.40
Output  | 0          | 0          | 0          |   0.0 |  0.00
Modify  | 0          | 0          | 0          |   0.0 |  0.00
Other   |            | 0.004026   |            |       |  9.76

Nlocal:    3999 ave 3999 max 3999 min
Histogram: 1 0 0 0 0 0 0 0 0 0
Nghost:    3806 ave 3806 max 3806 min
Histogram: 1 0 0 0 0 0 0 0 0 0
Neighs:    107946 ave 107946 max 107946 min
Histogram: 1 0 0 0 0 0 0 0 0 0

Total # of neighbors = 107946
Ave neighs/atom = 26.9932
Neighbor list builds = 0
Dangerous builds = 0

next            myLoop					# increment deformation step
jump            in.elastic loop				# end of the loop
change_box      all x delta 0.0 ${dx} remap units box	# deform the box
change_box      all x delta 0.0 0.0361492418294559 remap units box	
  orthogonal box = (0 0.000379085 0.000379085) to (36.1854 36.1496 36.1496)
minimize        1.0e-10 1.0e-10 100000 100000		# minimize the energy
WARNING: Using 'neigh_modify every 1 delay 0 check yes' setting during minimization (../min.cpp:168)
Per MPI rank memory allocation (min/avg/max) = 6.383 | 6.383 | 6.383 Mbytes
Step TotEng Volume Density Press Pxx Lx 
      53   -14155.152      47285.9    8.9245096   -1385.2088   -1672.8779    36.185391 
      57   -14155.152      47285.9    8.9245096   -1385.0312   -1672.2921    36.185391 
Loop time of 0.0519631 on 1 procs for 4 steps with 3999 atoms

99.1% CPU use with 1 MPI tasks x no OpenMP threads

Minimization stats:
  Stopping criterion = energy tolerance
  Energy initial, next-to-last, final = 
        -14155.1516412     -14155.1516501     -14155.1516513
  Force two-norm initial, final = 0.00796022 0.00259585
  Force max component initial, final = 0.00189157 0.000230624
  Final line search alpha, max atom move = 1 0.000230624
  Iterations, force evaluations = 4 8

MPI task timing breakdown:
Section |  min time  |  avg time  |  max time  |%varavg| %total
---------------------------------------------------------------
Pair    | 0.047475   | 0.047475   | 0.047475   |   0.0 | 91.36
Neigh   | 0          | 0          | 0          |   0.0 |  0.00
Comm    | 0.00031257 | 0.00031257 | 0.00031257 |   0.0 |  0.60
Output  | 0          | 0          | 0          |   0.0 |  0.00
Modify  | 0          | 0          | 0          |   0.0 |  0.00
Other   |            | 0.004175   |            |       |  8.03

Nlocal:    3999 ave 3999 max 3999 min
Histogram: 1 0 0 0 0 0 0 0 0 0
Nghost:    3806 ave 3806 max 3806 min
Histogram: 1 0 0 0 0 0 0 0 0 0
Neighs:    107946 ave 107946 max 107946 min
Histogram: 1 0 0 0 0 0 0 0 0 0

Total # of neighbors = 107946
Ave neighs/atom = 26.9932
Neighbor list builds = 0
Dangerous builds = 0

next            myLoop					# increment deformation step
jump            in.elastic loop				# end of the loop
change_box      all x delta 0.0 ${dx} remap units box	# deform the box
change_box      all x delta 0.0 0.0361492418294559 remap units box	
  orthogonal box = (0 0.000379085 0.000379085) to (36.2215 36.1496 36.1496)
minimize        1.0e-10 1.0e-10 100000 100000		# minimize the energy
WARNING: Using 'neigh_modify every 1 delay 0 check yes' setting during minimization (../min.cpp:168)
Per MPI rank memory allocation (min/avg/max) = 6.383 | 6.383 | 6.383 Mbytes
Step TotEng Volume Density Press Pxx Lx 
      57   -14155.078    47333.138    8.9156029   -2757.9611   -3333.3637     36.22154 
      60   -14155.078    47333.138    8.9156029   -2757.7838   -3332.8851     36.22154 
      61   -14155.078    47333.138    8.9156029   -2757.7804   -3332.8171     36.22154 
Loop time of 0.0549898 on 1 procs for 4 steps with 3999 atoms

98.4% CPU use with 1 MPI tasks x no OpenMP threads

Minimization stats:
  Stopping criterion = energy tolerance
  Energy initial, next-to-last, final = 
        -14155.0778395     -14155.0778468      -14155.077848
  Force two-norm initial, final = 0.00732177 0.00250424
  Force max component initial, final = 0.00182267 0.000230064
  Final line search alpha, max atom move = 1 0.000230064
  Iterations, force evaluations = 4 8

MPI task timing breakdown:
Section |  min time  |  avg time  |  max time  |%varavg| %total
---------------------------------------------------------------
Pair    | 0.046971   | 0.046971   | 0.046971   |   0.0 | 85.42
Neigh   | 0          | 0          | 0          |   0.0 |  0.00
Comm    | 0.00020099 | 0.00020099 | 0.00020099 |   0.0 |  0.37
Output  | 0.0033979  | 0.0033979  | 0.0033979  |   0.0 |  6.18
Modify  | 0          | 0          | 0          |   0.0 |  0.00
Other   |            | 0.00442    |            |       |  8.04

Nlocal:    3999 ave 3999 max 3999 min
Histogram: 1 0 0 0 0 0 0 0 0 0
Nghost:    3806 ave 3806 max 3806 min
Histogram: 1 0 0 0 0 0 0 0 0 0
Neighs:    107946 ave 107946 max 107946 min
Histogram: 1 0 0 0 0 0 0 0 0 0

Total # of neighbors = 107946
Ave neighs/atom = 26.9932
Neighbor list builds = 0
Dangerous builds = 0

next            myLoop					# increment deformation step
jump            in.elastic loop				# end of the loop
change_box      all x delta 0.0 ${dx} remap units box	# deform the box
change_box      all x delta 0.0 0.0361492418294559 remap units box	
  orthogonal box = (0 0.000379085 0.000379085) to (36.2577 36.1496 36.1496)
minimize        1.0e-10 1.0e-10 100000 100000		# minimize the energy
WARNING: Using 'neigh_modify every 1 delay 0 check yes' setting during minimization (../min.cpp:168)
Per MPI rank memory allocation (min/avg/max) = 6.383 | 6.383 | 6.383 Mbytes
Step TotEng Volume Density Press Pxx Lx 
      61   -14154.955    47380.377     8.906714   -4122.7932   -4986.4901     36.25769 
      63   -14154.955    47380.377     8.906714   -4122.6182   -4986.1271     36.25769 
Loop time of 0.0299721 on 1 procs for 2 steps with 3999 atoms

99.3% CPU use with 1 MPI tasks x no OpenMP threads

Minimization stats:
  Stopping criterion = energy tolerance
  Energy initial, next-to-last, final = 
        -14154.9551864     -14154.9551904     -14154.9551917
  Force two-norm initial, final = 0.00696735 0.00330483
  Force max component initial, final = 0.0017465 0.000402916
  Final line search alpha, max atom move = 1 0.000402916
  Iterations, force evaluations = 2 4

MPI task timing breakdown:
Section |  min time  |  avg time  |  max time  |%varavg| %total
---------------------------------------------------------------
Pair    | 0.026079   | 0.026079   | 0.026079   |   0.0 | 87.01
Neigh   | 0          | 0          | 0          |   0.0 |  0.00
Comm    | 0.00011301 | 0.00011301 | 0.00011301 |   0.0 |  0.38
Output  | 0          | 0          | 0          |   0.0 |  0.00
Modify  | 0          | 0          | 0          |   0.0 |  0.00
Other   |            | 0.00378    |            |       | 12.61

Nlocal:    3999 ave 3999 max 3999 min
Histogram: 1 0 0 0 0 0 0 0 0 0
Nghost:    3806 ave 3806 max 3806 min
Histogram: 1 0 0 0 0 0 0 0 0 0
Neighs:    107946 ave 107946 max 107946 min
Histogram: 1 0 0 0 0 0 0 0 0 0

Total # of neighbors = 107946
Ave neighs/atom = 26.9932
Neighbor list builds = 0
Dangerous builds = 0

next            myLoop					# increment deformation step
jump            in.elastic loop				# end of the loop
change_box      all x delta 0.0 ${dx} remap units box	# deform the box
change_box      all x delta 0.0 0.0361492418294559 remap units box	
  orthogonal box = (0 0.000379085 0.000379085) to (36.2938 36.1496 36.1496)
minimize        1.0e-10 1.0e-10 100000 100000		# minimize the energy
WARNING: Using 'neigh_modify every 1 delay 0 check yes' setting during minimization (../min.cpp:168)
Per MPI rank memory allocation (min/avg/max) = 6.383 | 6.383 | 6.383 Mbytes
Step TotEng Volume Density Press Pxx Lx 
      63   -14154.784    47427.616    8.8978427   -5479.7822   -6632.4757    36.293839 
      68   -14154.784    47427.616    8.8978427   -5479.6319   -6631.8374    36.293839 
Loop time of 0.0622349 on 1 procs for 5 steps with 3999 atoms

99.4% CPU use with 1 MPI tasks x no OpenMP threads

Minimization stats:
  Stopping criterion = energy tolerance
  Energy initial, next-to-last, final = 
        -14154.7838922     -14154.7839052     -14154.7839062
  Force two-norm initial, final = 0.00806093 0.00245186
  Force max component initial, final = 0.00181463 0.000244326
  Final line search alpha, max atom move = 1 0.000244326
  Iterations, force evaluations = 5 10

MPI task timing breakdown:
Section |  min time  |  avg time  |  max time  |%varavg| %total
---------------------------------------------------------------
Pair    | 0.057635   | 0.057635   | 0.057635   |   0.0 | 92.61
Neigh   | 0          | 0          | 0          |   0.0 |  0.00
Comm    | 0.00024962 | 0.00024962 | 0.00024962 |   0.0 |  0.40
Output  | 0          | 0          | 0          |   0.0 |  0.00
Modify  | 0          | 0          | 0          |   0.0 |  0.00
Other   |            | 0.00435    |            |       |  6.99

Nlocal:    3999 ave 3999 max 3999 min
Histogram: 1 0 0 0 0 0 0 0 0 0
Nghost:    3806 ave 3806 max 3806 min
Histogram: 1 0 0 0 0 0 0 0 0 0
Neighs:    107946 ave 107946 max 107946 min
Histogram: 1 0 0 0 0 0 0 0 0 0

Total # of neighbors = 107946
Ave neighs/atom = 26.9932
Neighbor list builds = 0
Dangerous builds = 0

next            myLoop					# increment deformation step
jump            in.elastic loop				# end of the loop
change_box      all x delta 0.0 ${dx} remap units box	# deform the box
change_box      all x delta 0.0 0.0361492418294559 remap units box	
  orthogonal box = (0 0.000379085 0.000379085) to (36.33 36.1496 36.1496)
minimize        1.0e-10 1.0e-10 100000 100000		# minimize the energy
WARNING: Using 'neigh_modify every 1 delay 0 check yes' setting during minimization (../min.cpp:168)
Per MPI rank memory allocation (min/avg/max) = 6.383 | 6.383 | 6.383 Mbytes
Step TotEng Volume Density Press Pxx Lx 
      68   -14154.564    47474.854    8.8889892   -6829.0249   -8270.9481    36.329988 
      70   -14154.564    47474.854    8.8889892   -6828.8288   -8270.5551    36.329988 
      71   -14154.564    47474.854    8.8889892   -6828.8525   -8270.5019    36.329988 
Loop time of 0.044487 on 1 procs for 3 steps with 3999 atoms

99.0% CPU use with 1 MPI tasks x no OpenMP threads

Minimization stats:
  Stopping criterion = energy tolerance
  Energy initial, next-to-last, final = 
        -14154.5641911     -14154.5641975     -14154.5641986
  Force two-norm initial, final = 0.00778815 0.00273143
  Force max component initial, final = 0.00210222 0.000360074
  Final line search alpha, max atom move = 1 0.000360074
  Iterations, force evaluations = 3 6

MPI task timing breakdown:
Section |  min time  |  avg time  |  max time  |%varavg| %total
---------------------------------------------------------------
Pair    | 0.036805   | 0.036805   | 0.036805   |   0.0 | 82.73
Neigh   | 0          | 0          | 0          |   0.0 |  0.00
Comm    | 0.0001719  | 0.0001719  | 0.0001719  |   0.0 |  0.39
Output  | 0.003432   | 0.003432   | 0.003432   |   0.0 |  7.71
Modify  | 0          | 0          | 0          |   0.0 |  0.00
Other   |            | 0.004078   |            |       |  9.17

Nlocal:    3999 ave 3999 max 3999 min
Histogram: 1 0 0 0 0 0 0 0 0 0
Nghost:    3806 ave 3806 max 3806 min
Histogram: 1 0 0 0 0 0 0 0 0 0
Neighs:    107946 ave 107946 max 107946 min
Histogram: 1 0 0 0 0 0 0 0 0 0

Total # of neighbors = 107946
Ave neighs/atom = 26.9932
Neighbor list builds = 0
Dangerous builds = 0

next            myLoop					# increment deformation step
jump            in.elastic loop				# end of the loop
change_box      all x delta 0.0 ${dx} remap units box	# deform the box
change_box      all x delta 0.0 0.0361492418294559 remap units box	
  orthogonal box = (0 0.000379085 0.000379085) to (36.3661 36.1496 36.1496)
minimize        1.0e-10 1.0e-10 100000 100000		# minimize the energy
WARNING: Using 'neigh_modify every 1 delay 0 check yes' setting during minimization (../min.cpp:168)
Per MPI rank memory allocation (min/avg/max) = 6.383 | 6.383 | 6.383 Mbytes
Step TotEng Volume Density Press Pxx Lx 
      71   -14154.296    47522.093    8.8801532    -8170.484   -9902.3545    36.366137 
      75   -14154.296    47522.093    8.8801532   -8170.3064    -9901.775    36.366137 
Loop time of 0.0511329 on 1 procs for 4 steps with 3999 atoms

99.4% CPU use with 1 MPI tasks x no OpenMP threads

Minimization stats:
  Stopping criterion = energy tolerance
  Energy initial, next-to-last, final = 
         -14154.296276     -14154.2962853     -14154.2962864
  Force two-norm initial, final = 0.00805183 0.0026811
  Force max component initial, final = 0.00193579 0.000205753
  Final line search alpha, max atom move = 1 0.000205753
  Iterations, force evaluations = 4 8

MPI task timing breakdown:
Section |  min time  |  avg time  |  max time  |%varavg| %total
---------------------------------------------------------------
Pair    | 0.046854   | 0.046854   | 0.046854   |   0.0 | 91.63
Neigh   | 0          | 0          | 0          |   0.0 |  0.00
Comm    | 0.00020194 | 0.00020194 | 0.00020194 |   0.0 |  0.39
Output  | 0          | 0          | 0          |   0.0 |  0.00
Modify  | 0          | 0          | 0          |   0.0 |  0.00
Other   |            | 0.004077   |            |       |  7.97

Nlocal:    3999 ave 3999 max 3999 min
Histogram: 1 0 0 0 0 0 0 0 0 0
Nghost:    3806 ave 3806 max 3806 min
Histogram: 1 0 0 0 0 0 0 0 0 0
Neighs:    107946 ave 107946 max 107946 min
Histogram: 1 0 0 0 0 0 0 0 0 0

Total # of neighbors = 107946
Ave neighs/atom = 26.9932
Neighbor list builds = 0
Dangerous builds = 0

next            myLoop					# increment deformation step
jump            in.elastic loop				# end of the loop
change_box      all x delta 0.0 ${dx} remap units box	# deform the box
change_box      all x delta 0.0 0.0361492418294559 remap units box	
  orthogonal box = (0 0.000379085 0.000379085) to (36.4023 36.1496 36.1496)
minimize        1.0e-10 1.0e-10 100000 100000		# minimize the energy
WARNING: Using 'neigh_modify every 1 delay 0 check yes' setting during minimization (../min.cpp:168)
Per MPI rank memory allocation (min/avg/max) = 6.383 | 6.383 | 6.383 Mbytes
Step TotEng Volume Density Press Pxx Lx 
      75    -14153.98    47569.332    8.8713348   -9504.2148   -11526.389    36.402287 
      77    -14153.98    47569.332    8.8713348     -9504.03   -11526.031    36.402287 
Loop time of 0.0298848 on 1 procs for 2 steps with 3999 atoms

99.3% CPU use with 1 MPI tasks x no OpenMP threads

Minimization stats:
  Stopping criterion = energy tolerance
  Energy initial, next-to-last, final = 
        -14153.9803741     -14153.9803782     -14153.9803796
  Force two-norm initial, final = 0.00723461 0.00340246
  Force max component initial, final = 0.00179529 0.000379425
  Final line search alpha, max atom move = 1 0.000379425
  Iterations, force evaluations = 2 4

MPI task timing breakdown:
Section |  min time  |  avg time  |  max time  |%varavg| %total
---------------------------------------------------------------
Pair    | 0.025993   | 0.025993   | 0.025993   |   0.0 | 86.98
Neigh   | 0          | 0          | 0          |   0.0 |  0.00
Comm    | 0.00011325 | 0.00011325 | 0.00011325 |   0.0 |  0.38
Output  | 0          | 0          | 0          |   0.0 |  0.00
Modify  | 0          | 0          | 0          |   0.0 |  0.00
Other   |            | 0.003779   |            |       | 12.64

Nlocal:    3999 ave 3999 max 3999 min
Histogram: 1 0 0 0 0 0 0 0 0 0
Nghost:    3806 ave 3806 max 3806 min
Histogram: 1 0 0 0 0 0 0 0 0 0
Neighs:    107946 ave 107946 max 107946 min
Histogram: 1 0 0 0 0 0 0 0 0 0

Total # of neighbors = 107946
Ave neighs/atom = 26.9932
Neighbor list builds = 0
Dangerous builds = 0

next            myLoop					# increment deformation step
jump            in.elastic loop				# end of the loop
change_box      all x delta 0.0 ${dx} remap units box	# deform the box
change_box      all x delta 0.0 0.0361492418294559 remap units box	
  orthogonal box = (0 0.000379085 0.000379085) to (36.4384 36.1496 36.1496)
minimize        1.0e-10 1.0e-10 100000 100000		# minimize the energy
WARNING: Using 'neigh_modify every 1 delay 0 check yes' setting during minimization (../min.cpp:168)
Per MPI rank memory allocation (min/avg/max) = 6.383 | 6.383 | 6.383 Mbytes
Step TotEng Volume Density Press Pxx Lx 
      77   -14153.617     47616.57    8.8625338    -10830.26   -13143.428    36.438436 
      80   -14153.617     47616.57    8.8625338   -10830.103   -13142.852    36.438436 
      82   -14153.617     47616.57    8.8625338   -10830.122   -13142.806    36.438436 
Loop time of 0.0661099 on 1 procs for 5 steps with 3999 atoms

99.0% CPU use with 1 MPI tasks x no OpenMP threads

Minimization stats:
  Stopping criterion = energy tolerance
  Energy initial, next-to-last, final = 
         -14153.616684     -14153.6166972     -14153.6166983
  Force two-norm initial, final = 0.00775633 0.00261936
  Force max component initial, final = 0.00169949 0.000247782
  Final line search alpha, max atom move = 1 0.000247782
  Iterations, force evaluations = 5 10

MPI task timing breakdown:
Section |  min time  |  avg time  |  max time  |%varavg| %total
---------------------------------------------------------------
Pair    | 0.057971   | 0.057971   | 0.057971   |   0.0 | 87.69
Neigh   | 0          | 0          | 0          |   0.0 |  0.00
Comm    | 0.00025201 | 0.00025201 | 0.00025201 |   0.0 |  0.38
Output  | 0.003475   | 0.003475   | 0.003475   |   0.0 |  5.26
Modify  | 0          | 0          | 0          |   0.0 |  0.00
Other   |            | 0.004412   |            |       |  6.67

Nlocal:    3999 ave 3999 max 3999 min
Histogram: 1 0 0 0 0 0 0 0 0 0
Nghost:    3806 ave 3806 max 3806 min
Histogram: 1 0 0 0 0 0 0 0 0 0
Neighs:    107946 ave 107946 max 107946 min
Histogram: 1 0 0 0 0 0 0 0 0 0

Total # of neighbors = 107946
Ave neighs/atom = 26.9932
Neighbor list builds = 0
Dangerous builds = 0

next            myLoop					# increment deformation step
jump            in.elastic loop				# end of the loop
change_box      all x delta 0.0 ${dx} remap units box	# deform the box
change_box      all x delta 0.0 0.0361492418294559 remap units box	
  orthogonal box = (0 0.000379085 0.000379085) to (36.4746 36.1496 36.1496)
minimize        1.0e-10 1.0e-10 100000 100000		# minimize the energy
WARNING: Using 'neigh_modify every 1 delay 0 check yes' setting during minimization (../min.cpp:168)
Per MPI rank memory allocation (min/avg/max) = 6.383 | 6.383 | 6.383 Mbytes
Step TotEng Volume Density Press Pxx Lx 
      82   -14153.205    47663.809    8.8537504   -12148.683   -14752.968    36.474585 
      85   -14153.205    47663.809    8.8537504   -12148.517   -14752.546    36.474585 
Loop time of 0.0406742 on 1 procs for 3 steps with 3999 atoms

99.3% CPU use with 1 MPI tasks x no OpenMP threads

Minimization stats:
  Stopping criterion = energy tolerance
  Energy initial, next-to-last, final = 
        -14153.2054402     -14153.2054464     -14153.2054474
  Force two-norm initial, final = 0.00761828 0.00267612
  Force max component initial, final = 0.00204385 0.000331599
  Final line search alpha, max atom move = 1 0.000331599
  Iterations, force evaluations = 3 6

MPI task timing breakdown:
Section |  min time  |  avg time  |  max time  |%varavg| %total
---------------------------------------------------------------
Pair    | 0.036567   | 0.036567   | 0.036567   |   0.0 | 89.90
Neigh   | 0          | 0          | 0          |   0.0 |  0.00
Comm    | 0.00015593 | 0.00015593 | 0.00015593 |   0.0 |  0.38
Output  | 0          | 0          | 0          |   0.0 |  0.00
Modify  | 0          | 0          | 0          |   0.0 |  0.00
Other   |            | 0.003952   |            |       |  9.72

Nlocal:    3999 ave 3999 max 3999 min
Histogram: 1 0 0 0 0 0 0 0 0 0
Nghost:    3806 ave 3806 max 3806 min
Histogram: 1 0 0 0 0 0 0 0 0 0
Neighs:    107946 ave 107946 max 107946 min
Histogram: 1 0 0 0 0 0 0 0 0 0

Total # of neighbors = 107946
Ave neighs/atom = 26.9932
Neighbor list builds = 0
Dangerous builds = 0

next            myLoop					# increment deformation step
jump            in.elastic loop				# end of the loop
change_box      all x delta 0.0 ${dx} remap units box	# deform the box
change_box      all x delta 0.0 0.0361492418294559 remap units box	
  orthogonal box = (0 0.000379085 0.000379085) to (36.5107 36.1496 36.1496)
minimize        1.0e-10 1.0e-10 100000 100000		# minimize the energy
WARNING: Using 'neigh_modify every 1 delay 0 check yes' setting during minimization (../min.cpp:168)
Per MPI rank memory allocation (min/avg/max) = 6.383 | 6.383 | 6.383 Mbytes
Step TotEng Volume Density Press Pxx Lx 
      85   -14152.747    47711.048    8.8449843   -13459.426   -16355.467    36.510734 
      89   -14152.747    47711.048    8.8449843   -13459.254   -16354.911    36.510734 
Loop time of 0.051168 on 1 procs for 4 steps with 3999 atoms

99.4% CPU use with 1 MPI tasks x no OpenMP threads

Minimization stats:
  Stopping criterion = energy tolerance
  Energy initial, next-to-last, final = 
        -14152.7468344     -14152.7468433     -14152.7468444
  Force two-norm initial, final = 0.00791797 0.00268303
  Force max component initial, final = 0.00190814 0.000193314
  Final line search alpha, max atom move = 1 0.000193314
  Iterations, force evaluations = 4 8

MPI task timing breakdown:
Section |  min time  |  avg time  |  max time  |%varavg| %total
---------------------------------------------------------------
Pair    | 0.04683    | 0.04683    | 0.04683    |   0.0 | 91.52
Neigh   | 0          | 0          | 0          |   0.0 |  0.00
Comm    | 0.00021482 | 0.00021482 | 0.00021482 |   0.0 |  0.42
Output  | 0          | 0          | 0          |   0.0 |  0.00
Modify  | 0          | 0          | 0          |   0.0 |  0.00
Other   |            | 0.004123   |            |       |  8.06

Nlocal:    3999 ave 3999 max 3999 min
Histogram: 1 0 0 0 0 0 0 0 0 0
Nghost:    3806 ave 3806 max 3806 min
Histogram: 1 0 0 0 0 0 0 0 0 0
Neighs:    107946 ave 107946 max 107946 min
Histogram: 1 0 0 0 0 0 0 0 0 0

Total # of neighbors = 107946
Ave neighs/atom = 26.9932
Neighbor list builds = 0
Dangerous builds = 0

next            myLoop					# increment deformation step
jump            in.elastic loop				# end of the loop
change_box      all x delta 0.0 ${dx} remap units box	# deform the box
change_box      all x delta 0.0 0.0361492418294559 remap units box	
  orthogonal box = (0 0.000379085 0.000379085) to (36.5469 36.1496 36.1496)
minimize        1.0e-10 1.0e-10 100000 100000		# minimize the energy
WARNING: Using 'neigh_modify every 1 delay 0 check yes' setting during minimization (../min.cpp:168)
Per MPI rank memory allocation (min/avg/max) = 6.383 | 6.383 | 6.383 Mbytes
Step TotEng Volume Density Press Pxx Lx 
      89   -14152.241    47758.286    8.8362355   -14762.529   -17950.588    36.546883 
      90   -14152.241    47758.286    8.8362355   -14762.369   -17950.339    36.546883 
      91   -14152.241    47758.286    8.8362355   -14762.347   -17950.246    36.546883 
Loop time of 0.0345469 on 1 procs for 2 steps with 3999 atoms

98.3% CPU use with 1 MPI tasks x no OpenMP threads

Minimization stats:
  Stopping criterion = energy tolerance
  Energy initial, next-to-last, final = 
         -14152.241094      -14152.241098     -14152.2410993
  Force two-norm initial, final = 0.00709859 0.00323887
  Force max component initial, final = 0.00175661 0.000357233
  Final line search alpha, max atom move = 1 0.000357233
  Iterations, force evaluations = 2 4

MPI task timing breakdown:
Section |  min time  |  avg time  |  max time  |%varavg| %total
---------------------------------------------------------------
Pair    | 0.026856   | 0.026856   | 0.026856   |   0.0 | 77.74
Neigh   | 0          | 0          | 0          |   0.0 |  0.00
Comm    | 0.00030398 | 0.00030398 | 0.00030398 |   0.0 |  0.88
Output  | 0.003454   | 0.003454   | 0.003454   |   0.0 | 10.00
Modify  | 0          | 0          | 0          |   0.0 |  0.00
Other   |            | 0.003932   |            |       | 11.38

Nlocal:    3999 ave 3999 max 3999 min
Histogram: 1 0 0 0 0 0 0 0 0 0
Nghost:    3806 ave 3806 max 3806 min
Histogram: 1 0 0 0 0 0 0 0 0 0
Neighs:    107946 ave 107946 max 107946 min
Histogram: 1 0 0 0 0 0 0 0 0 0

Total # of neighbors = 107946
Ave neighs/atom = 26.9932
Neighbor list builds = 0
Dangerous builds = 0

next            myLoop					# increment deformation step
jump            in.elastic loop				# end of the loop
change_box      all x delta 0.0 ${dx} remap units box	# deform the box
change_box      all x delta 0.0 0.0361492418294559 remap units box	
  orthogonal box = (0 0.000379085 0.000379085) to (36.583 36.1496 36.1496)
minimize        1.0e-10 1.0e-10 100000 100000		# minimize the energy
WARNING: Using 'neigh_modify every 1 delay 0 check yes' setting during minimization (../min.cpp:168)
Per MPI rank memory allocation (min/avg/max) = 6.383 | 6.383 | 6.383 Mbytes
Step TotEng Volume Density Press Pxx Lx 
      91   -14151.688    47805.525    8.8275041   -16058.067   -19538.767    36.583033 
      96   -14151.688    47805.525    8.8275041   -16057.936   -19538.172    36.583033 
Loop time of 0.0628822 on 1 procs for 5 steps with 3999 atoms

99.2% CPU use with 1 MPI tasks x no OpenMP threads

Minimization stats:
  Stopping criterion = energy tolerance
  Energy initial, next-to-last, final = 
        -14151.6884178     -14151.6884303     -14151.6884314
  Force two-norm initial, final = 0.00754134 0.00261484
  Force max component initial, final = 0.00166654 0.00023717
  Final line search alpha, max atom move = 1 0.00023717
  Iterations, force evaluations = 5 10

MPI task timing breakdown:
Section |  min time  |  avg time  |  max time  |%varavg| %total
---------------------------------------------------------------
Pair    | 0.058346   | 0.058346   | 0.058346   |   0.0 | 92.79
Neigh   | 0          | 0          | 0          |   0.0 |  0.00
Comm    | 0.00025296 | 0.00025296 | 0.00025296 |   0.0 |  0.40
Output  | 0          | 0          | 0          |   0.0 |  0.00
Modify  | 0          | 0          | 0          |   0.0 |  0.00
Other   |            | 0.004283   |            |       |  6.81

Nlocal:    3999 ave 3999 max 3999 min
Histogram: 1 0 0 0 0 0 0 0 0 0
Nghost:    3806 ave 3806 max 3806 min
Histogram: 1 0 0 0 0 0 0 0 0 0
Neighs:    107946 ave 107946 max 107946 min
Histogram: 1 0 0 0 0 0 0 0 0 0

Total # of neighbors = 107946
Ave neighs/atom = 26.9932
Neighbor list builds = 0
Dangerous builds = 0

next            myLoop					# increment deformation step
jump            in.elastic loop				# end of the loop
change_box      all x delta 0.0 ${dx} remap units box	# deform the box
change_box      all x delta 0.0 0.0361492418294559 remap units box	
  orthogonal box = (0 0.000379085 0.000379085) to (36.6192 36.1496 36.1496)
minimize        1.0e-10 1.0e-10 100000 100000		# minimize the energy
WARNING: Using 'neigh_modify every 1 delay 0 check yes' setting during minimization (../min.cpp:168)
Per MPI rank memory allocation (min/avg/max) = 6.383 | 6.383 | 6.383 Mbytes
Step TotEng Volume Density Press Pxx Lx 
      96   -14151.089    47852.764    8.8187899   -17346.156   -21119.588    36.619182 
      99   -14151.089    47852.764    8.8187899   -17345.993   -21119.186    36.619182 
Loop time of 0.0405889 on 1 procs for 3 steps with 3999 atoms

99.4% CPU use with 1 MPI tasks x no OpenMP threads

Minimization stats:
  Stopping criterion = energy tolerance
  Energy initial, next-to-last, final = 
        -14151.0890361     -14151.0890421      -14151.089043
  Force two-norm initial, final = 0.00745513 0.0025955
  Force max component initial, final = 0.00199403 0.000303558
  Final line search alpha, max atom move = 1 0.000303558
  Iterations, force evaluations = 3 6

MPI task timing breakdown:
Section |  min time  |  avg time  |  max time  |%varavg| %total
---------------------------------------------------------------
Pair    | 0.03651    | 0.03651    | 0.03651    |   0.0 | 89.95
Neigh   | 0          | 0          | 0          |   0.0 |  0.00
Comm    | 0.00015521 | 0.00015521 | 0.00015521 |   0.0 |  0.38
Output  | 0          | 0          | 0          |   0.0 |  0.00
Modify  | 0          | 0          | 0          |   0.0 |  0.00
Other   |            | 0.003924   |            |       |  9.67

Nlocal:    3999 ave 3999 max 3999 min
Histogram: 1 0 0 0 0 0 0 0 0 0
Nghost:    3806 ave 3806 max 3806 min
Histogram: 1 0 0 0 0 0 0 0 0 0
Neighs:    107946 ave 107946 max 107946 min
Histogram: 1 0 0 0 0 0 0 0 0 0

Total # of neighbors = 107946
Ave neighs/atom = 26.9932
Neighbor list builds = 0
Dangerous builds = 0

next            myLoop					# increment deformation step
jump            in.elastic loop				# end of the loop
change_box      all x delta 0.0 ${dx} remap units box	# deform the box
change_box      all x delta 0.0 0.0361492418294559 remap units box	
  orthogonal box = (0 0.000379085 0.000379085) to (36.6553 36.1496 36.1496)
minimize        1.0e-10 1.0e-10 100000 100000		# minimize the energy
WARNING: Using 'neigh_modify every 1 delay 0 check yes' setting during minimization (../min.cpp:168)
Per MPI rank memory allocation (min/avg/max) = 6.383 | 6.383 | 6.383 Mbytes
Step TotEng Volume Density Press Pxx Lx 
      99   -14150.443    47900.002    8.8100928   -18626.746   -22693.507    36.655331 
     100   -14150.443    47900.002    8.8100928    -18626.58   -22693.249    36.655331 
     103   -14150.443    47900.002    8.8100928   -18626.579   -22692.977    36.655331 
Loop time of 0.0553501 on 1 procs for 4 steps with 3999 atoms

98.5% CPU use with 1 MPI tasks x no OpenMP threads

Minimization stats:
  Stopping criterion = energy tolerance
  Energy initial, next-to-last, final = 
        -14150.4431377     -14150.4431462     -14150.4431473
  Force two-norm initial, final = 0.0077503 0.00261702
  Force max component initial, final = 0.00186714 0.000193012
  Final line search alpha, max atom move = 1 0.000193012
  Iterations, force evaluations = 4 8

MPI task timing breakdown:
Section |  min time  |  avg time  |  max time  |%varavg| %total
---------------------------------------------------------------
Pair    | 0.047637   | 0.047637   | 0.047637   |   0.0 | 86.06
Neigh   | 0          | 0          | 0          |   0.0 |  0.00
Comm    | 0.00020885 | 0.00020885 | 0.00020885 |   0.0 |  0.38
Output  | 0.0034268  | 0.0034268  | 0.0034268  |   0.0 |  6.19
Modify  | 0          | 0          | 0          |   0.0 |  0.00
Other   |            | 0.004078   |            |       |  7.37

Nlocal:    3999 ave 3999 max 3999 min
Histogram: 1 0 0 0 0 0 0 0 0 0
Nghost:    3806 ave 3806 max 3806 min
Histogram: 1 0 0 0 0 0 0 0 0 0
Neighs:    107946 ave 107946 max 107946 min
Histogram: 1 0 0 0 0 0 0 0 0 0

Total # of neighbors = 107946
Ave neighs/atom = 26.9932
Neighbor list builds = 0
Dangerous builds = 0

next            myLoop					# increment deformation step
jump            in.elastic loop				# end of the loop
change_box      all x delta 0.0 ${dx} remap units box	# deform the box
change_box      all x delta 0.0 0.0361492418294559 remap units box	
  orthogonal box = (0 0.000379085 0.000379085) to (36.6915 36.1496 36.1496)
minimize        1.0e-10 1.0e-10 100000 100000		# minimize the energy
WARNING: Using 'neigh_modify every 1 delay 0 check yes' setting during minimization (../min.cpp:168)
Per MPI rank memory allocation (min/avg/max) = 6.383 | 6.383 | 6.383 Mbytes
Step TotEng Volume Density Press Pxx Lx 
     103   -14149.751    47947.241    8.8014129   -19899.912   -24260.231     36.69148 
     105   -14149.751    47947.241    8.8014129   -19899.732   -24259.903     36.69148 
Loop time of 0.0345042 on 1 procs for 2 steps with 3999 atoms

97.7% CPU use with 1 MPI tasks x no OpenMP threads

Minimization stats:
  Stopping criterion = energy tolerance
  Energy initial, next-to-last, final = 
        -14149.7509444     -14149.7509482     -14149.7509494
  Force two-norm initial, final = 0.00695498 0.00311752
  Force max component initial, final = 0.00171916 0.000354435
  Final line search alpha, max atom move = 1 0.000354435
  Iterations, force evaluations = 2 4

MPI task timing breakdown:
Section |  min time  |  avg time  |  max time  |%varavg| %total
---------------------------------------------------------------
Pair    | 0.027163   | 0.027163   | 0.027163   |   0.0 | 78.72
Neigh   | 0          | 0          | 0          |   0.0 |  0.00
Comm    | 0.00015211 | 0.00015211 | 0.00015211 |   0.0 |  0.44
Output  | 0          | 0          | 0          |   0.0 |  0.00
Modify  | 0          | 0          | 0          |   0.0 |  0.00
Other   |            | 0.007189   |            |       | 20.84

Nlocal:    3999 ave 3999 max 3999 min
Histogram: 1 0 0 0 0 0 0 0 0 0
Nghost:    3806 ave 3806 max 3806 min
Histogram: 1 0 0 0 0 0 0 0 0 0
Neighs:    107946 ave 107946 max 107946 min
Histogram: 1 0 0 0 0 0 0 0 0 0

Total # of neighbors = 107946
Ave neighs/atom = 26.9932
Neighbor list builds = 0
Dangerous builds = 0

next            myLoop					# increment deformation step
jump            in.elastic loop				# end of the loop
change_box      all x delta 0.0 ${dx} remap units box	# deform the box
change_box      all x delta 0.0 0.0361492418294559 remap units box	
  orthogonal box = (0 0.000379085 0.000379085) to (36.7276 36.1496 36.1496)
minimize        1.0e-10 1.0e-10 100000 100000		# minimize the energy
WARNING: Using 'neigh_modify every 1 delay 0 check yes' setting during minimization (../min.cpp:168)
Per MPI rank memory allocation (min/avg/max) = 6.383 | 6.383 | 6.383 Mbytes
Step TotEng Volume Density Press Pxx Lx 
     105   -14149.013     47994.48    8.7927501   -21165.653   -25820.068     36.72763 
     110   -14149.013     47994.48    8.7927501   -21165.528   -25819.501     36.72763 
Loop time of 0.071243 on 1 procs for 5 steps with 3999 atoms

98.1% CPU use with 1 MPI tasks x no OpenMP threads

Minimization stats:
  Stopping criterion = energy tolerance
  Energy initial, next-to-last, final = 
        -14149.0126517     -14149.0126636     -14149.0126646
  Force two-norm initial, final = 0.00737285 0.00256672
  Force max component initial, final = 0.00164458 0.000233228
  Final line search alpha, max atom move = 1 0.000233228
  Iterations, force evaluations = 5 10

MPI task timing breakdown:
Section |  min time  |  avg time  |  max time  |%varavg| %total
---------------------------------------------------------------
Pair    | 0.066312   | 0.066312   | 0.066312   |   0.0 | 93.08
Neigh   | 0          | 0          | 0          |   0.0 |  0.00
Comm    | 0.00034714 | 0.00034714 | 0.00034714 |   0.0 |  0.49
Output  | 0          | 0          | 0          |   0.0 |  0.00
Modify  | 0          | 0          | 0          |   0.0 |  0.00
Other   |            | 0.004584   |            |       |  6.43

Nlocal:    3999 ave 3999 max 3999 min
Histogram: 1 0 0 0 0 0 0 0 0 0
Nghost:    3806 ave 3806 max 3806 min
Histogram: 1 0 0 0 0 0 0 0 0 0
Neighs:    107946 ave 107946 max 107946 min
Histogram: 1 0 0 0 0 0 0 0 0 0

Total # of neighbors = 107946
Ave neighs/atom = 26.9932
Neighbor list builds = 0
Dangerous builds = 0

next            myLoop					# increment deformation step
jump            in.elastic loop				# end of the loop
change_box      all x delta 0.0 ${dx} remap units box	# deform the box
change_box      all x delta 0.0 0.0361492418294559 remap units box	
  orthogonal box = (0 0.000379085 0.000379085) to (36.7638 36.1496 36.1496)
minimize        1.0e-10 1.0e-10 100000 100000		# minimize the energy
WARNING: Using 'neigh_modify every 1 delay 0 check yes' setting during minimization (../min.cpp:168)
Per MPI rank memory allocation (min/avg/max) = 6.384 | 6.384 | 6.384 Mbytes
Step TotEng Volume Density Press Pxx Lx 
     110   -14148.228    48041.718    8.7841043   -22424.051    -27372.57    36.763779 
     112   -14148.228    48041.718    8.7841043   -22423.864   -27372.225    36.763779 
Loop time of 0.029742 on 1 procs for 2 steps with 3999 atoms

98.9% CPU use with 1 MPI tasks x no OpenMP threads

Minimization stats:
  Stopping criterion = energy tolerance
  Energy initial, next-to-last, final = 
        -14148.2284882     -14148.2284925     -14148.2284939
  Force two-norm initial, final = 0.00730199 0.00238894
  Force max component initial, final = 0.00194412 0.000307479
  Final line search alpha, max atom move = 1 0.000307479
  Iterations, force evaluations = 2 4

MPI task timing breakdown:
Section |  min time  |  avg time  |  max time  |%varavg| %total
---------------------------------------------------------------
Pair    | 0.025755   | 0.025755   | 0.025755   |   0.0 | 86.60
Neigh   | 0          | 0          | 0          |   0.0 |  0.00
Comm    | 0.00011778 | 0.00011778 | 0.00011778 |   0.0 |  0.40
Output  | 0          | 0          | 0          |   0.0 |  0.00
Modify  | 0          | 0          | 0          |   0.0 |  0.00
Other   |            | 0.003869   |            |       | 13.01

Nlocal:    3999 ave 3999 max 3999 min
Histogram: 1 0 0 0 0 0 0 0 0 0
Nghost:    3806 ave 3806 max 3806 min
Histogram: 1 0 0 0 0 0 0 0 0 0
Neighs:    107946 ave 107946 max 107946 min
Histogram: 1 0 0 0 0 0 0 0 0 0

Total # of neighbors = 107946
Ave neighs/atom = 26.9932
Neighbor list builds = 0
Dangerous builds = 0

next            myLoop					# increment deformation step
jump            in.elastic loop				# end of the loop
change_box      all x delta 0.0 ${dx} remap units box	# deform the box
change_box      all x delta 0.0 0.0361492418294559 remap units box	
  orthogonal box = (0 0.000379085 0.000379085) to (36.7999 36.1496 36.1496)
minimize        1.0e-10 1.0e-10 100000 100000		# minimize the energy
WARNING: Using 'neigh_modify every 1 delay 0 check yes' setting during minimization (../min.cpp:168)
Per MPI rank memory allocation (min/avg/max) = 6.384 | 6.384 | 6.384 Mbytes
Step TotEng Volume Density Press Pxx Lx 
     112   -14147.399    48088.957    8.7754756   -23675.007   -28918.197    36.799928 
     116   -14147.399    48088.957    8.7754756   -23674.887   -28917.679    36.799928 
Loop time of 0.0518279 on 1 procs for 4 steps with 3999 atoms

99.2% CPU use with 1 MPI tasks x no OpenMP threads

Minimization stats:
  Stopping criterion = energy tolerance
  Energy initial, next-to-last, final = 
        -14147.3986415     -14147.3986508     -14147.3986521
  Force two-norm initial, final = 0.00697965 0.00284317
  Force max component initial, final = 0.00162434 0.000189567
  Final line search alpha, max atom move = 1 0.000189567
  Iterations, force evaluations = 4 8

MPI task timing breakdown:
Section |  min time  |  avg time  |  max time  |%varavg| %total
---------------------------------------------------------------
Pair    | 0.046416   | 0.046416   | 0.046416   |   0.0 | 89.56
Neigh   | 0          | 0          | 0          |   0.0 |  0.00
Comm    | 0.00020957 | 0.00020957 | 0.00020957 |   0.0 |  0.40
Output  | 0          | 0          | 0          |   0.0 |  0.00
Modify  | 0          | 0          | 0          |   0.0 |  0.00
Other   |            | 0.005203   |            |       | 10.04

Nlocal:    3999 ave 3999 max 3999 min
Histogram: 1 0 0 0 0 0 0 0 0 0
Nghost:    3806 ave 3806 max 3806 min
Histogram: 1 0 0 0 0 0 0 0 0 0
Neighs:    107946 ave 107946 max 107946 min
Histogram: 1 0 0 0 0 0 0 0 0 0

Total # of neighbors = 107946
Ave neighs/atom = 26.9932
Neighbor list builds = 0
Dangerous builds = 0

next            myLoop					# increment deformation step
jump            in.elastic loop				# end of the loop
change_box      all x delta 0.0 ${dx} remap units box	# deform the box
change_box      all x delta 0.0 0.0361492418294559 remap units box	
  orthogonal box = (0 0.000379085 0.000379085) to (36.8361 36.1496 36.1496)
minimize        1.0e-10 1.0e-10 100000 100000		# minimize the energy
WARNING: Using 'neigh_modify every 1 delay 0 check yes' setting during minimization (../min.cpp:168)
Per MPI rank memory allocation (min/avg/max) = 6.384 | 6.384 | 6.384 Mbytes
Step TotEng Volume Density Press Pxx Lx 
     116   -14146.523    48136.196    8.7668637   -24918.667   -30456.548    36.836077 
     118   -14146.523    48136.196    8.7668637   -24918.475   -30456.212    36.836077 
Loop time of 0.0313849 on 1 procs for 2 steps with 3999 atoms

98.6% CPU use with 1 MPI tasks x no OpenMP threads

Minimization stats:
  Stopping criterion = energy tolerance
  Energy initial, next-to-last, final = 
        -14146.5233382     -14146.5233427     -14146.5233439
  Force two-norm initial, final = 0.00740317 0.00300263
  Force max component initial, final = 0.00183275 0.00037199
  Final line search alpha, max atom move = 1 0.00037199
  Iterations, force evaluations = 2 4

MPI task timing breakdown:
Section |  min time  |  avg time  |  max time  |%varavg| %total
---------------------------------------------------------------
Pair    | 0.027331   | 0.027331   | 0.027331   |   0.0 | 87.08
Neigh   | 0          | 0          | 0          |   0.0 |  0.00
Comm    | 0.00012779 | 0.00012779 | 0.00012779 |   0.0 |  0.41
Output  | 0          | 0          | 0          |   0.0 |  0.00
Modify  | 0          | 0          | 0          |   0.0 |  0.00
Other   |            | 0.003926   |            |       | 12.51

Nlocal:    3999 ave 3999 max 3999 min
Histogram: 1 0 0 0 0 0 0 0 0 0
Nghost:    3806 ave 3806 max 3806 min
Histogram: 1 0 0 0 0 0 0 0 0 0
Neighs:    107946 ave 107946 max 107946 min
Histogram: 1 0 0 0 0 0 0 0 0 0

Total # of neighbors = 107946
Ave neighs/atom = 26.9932
Neighbor list builds = 0
Dangerous builds = 0

next            myLoop					# increment deformation step
jump            in.elastic loop				# end of the loop
change_box      all x delta 0.0 ${dx} remap units box	# deform the box
change_box      all x delta 0.0 0.0361492418294559 remap units box	
  orthogonal box = (0 0.000379085 0.000379085) to (36.8722 36.1496 36.1496)
minimize        1.0e-10 1.0e-10 100000 100000		# minimize the energy
WARNING: Using 'neigh_modify every 1 delay 0 check yes' setting during minimization (../min.cpp:168)
Per MPI rank memory allocation (min/avg/max) = 6.384 | 6.384 | 6.384 Mbytes
Step TotEng Volume Density Press Pxx Lx 
     118   -14145.603    48183.434    8.7582687    -26154.98    -31988.08    36.872227 
     120   -14145.603    48183.434    8.7582687   -26154.782   -31987.604    36.872227 
     123   -14145.603    48183.434    8.7582687   -26154.862    -31987.53    36.872227 
Loop time of 0.064774 on 1 procs for 5 steps with 3999 atoms

98.8% CPU use with 1 MPI tasks x no OpenMP threads

Minimization stats:
  Stopping criterion = energy tolerance
  Energy initial, next-to-last, final = 
        -14145.6027713     -14145.6027831     -14145.6027841
  Force two-norm initial, final = 0.00722518 0.00257872
  Force max component initial, final = 0.00161055 0.0002243
  Final line search alpha, max atom move = 1 0.0002243
  Iterations, force evaluations = 5 10

MPI task timing breakdown:
Section |  min time  |  avg time  |  max time  |%varavg| %total
---------------------------------------------------------------
Pair    | 0.056679   | 0.056679   | 0.056679   |   0.0 | 87.50
Neigh   | 0          | 0          | 0          |   0.0 |  0.00
Comm    | 0.00025082 | 0.00025082 | 0.00025082 |   0.0 |  0.39
Output  | 0.0034959  | 0.0034959  | 0.0034959  |   0.0 |  5.40
Modify  | 0          | 0          | 0          |   0.0 |  0.00
Other   |            | 0.004349   |            |       |  6.71

Nlocal:    3999 ave 3999 max 3999 min
Histogram: 1 0 0 0 0 0 0 0 0 0
Nghost:    3806 ave 3806 max 3806 min
Histogram: 1 0 0 0 0 0 0 0 0 0
Neighs:    107946 ave 107946 max 107946 min
Histogram: 1 0 0 0 0 0 0 0 0 0

Total # of neighbors = 107946
Ave neighs/atom = 26.9932
Neighbor list builds = 0
Dangerous builds = 0

next            myLoop					# increment deformation step
jump            in.elastic loop				# end of the loop
change_box      all x delta 0.0 ${dx} remap units box	# deform the box
change_box      all x delta 0.0 0.0361492418294559 remap units box	
  orthogonal box = (0 0.000379085 0.000379085) to (36.9084 36.1496 36.1496)
minimize        1.0e-10 1.0e-10 100000 100000		# minimize the energy
WARNING: Using 'neigh_modify every 1 delay 0 check yes' setting during minimization (../min.cpp:168)
Per MPI rank memory allocation (min/avg/max) = 6.384 | 6.384 | 6.384 Mbytes
Step TotEng Volume Density Press Pxx Lx 
     123   -14144.637    48230.673    8.7496906   -27384.145   -33512.447    36.908376 
     125   -14144.637    48230.673    8.7496906   -27383.959   -33512.114    36.908376 
Loop time of 0.0294089 on 1 procs for 2 steps with 3999 atoms

99.3% CPU use with 1 MPI tasks x no OpenMP threads

Minimization stats:
  Stopping criterion = energy tolerance
  Energy initial, next-to-last, final = 
        -14144.6371646     -14144.6371688     -14144.6371701
  Force two-norm initial, final = 0.00718947 0.00232764
  Force max component initial, final = 0.00191161 0.000299687
  Final line search alpha, max atom move = 1 0.000299687
  Iterations, force evaluations = 2 4

MPI task timing breakdown:
Section |  min time  |  avg time  |  max time  |%varavg| %total
---------------------------------------------------------------
Pair    | 0.025527   | 0.025527   | 0.025527   |   0.0 | 86.80
Neigh   | 0          | 0          | 0          |   0.0 |  0.00
Comm    | 0.00011158 | 0.00011158 | 0.00011158 |   0.0 |  0.38
Output  | 0          | 0          | 0          |   0.0 |  0.00
Modify  | 0          | 0          | 0          |   0.0 |  0.00
Other   |            | 0.00377    |            |       | 12.82

Nlocal:    3999 ave 3999 max 3999 min
Histogram: 1 0 0 0 0 0 0 0 0 0
Nghost:    3806 ave 3806 max 3806 min
Histogram: 1 0 0 0 0 0 0 0 0 0
Neighs:    107946 ave 107946 max 107946 min
Histogram: 1 0 0 0 0 0 0 0 0 0

Total # of neighbors = 107946
Ave neighs/atom = 26.9932
Neighbor list builds = 0
Dangerous builds = 0

next            myLoop					# increment deformation step
jump            in.elastic loop				# end of the loop
change_box      all x delta 0.0 ${dx} remap units box	# deform the box
change_box      all x delta 0.0 0.0361492418294559 remap units box	
  orthogonal box = (0 0.000379085 0.000379085) to (36.9445 36.1496 36.1496)
minimize        1.0e-10 1.0e-10 100000 100000		# minimize the energy
WARNING: Using 'neigh_modify every 1 delay 0 check yes' setting during minimization (../min.cpp:168)
Per MPI rank memory allocation (min/avg/max) = 6.384 | 6.384 | 6.384 Mbytes
Step TotEng Volume Density Press Pxx Lx 
     125   -14143.627    48277.912    8.7411293   -28606.064   -35030.097    36.944525 
     129   -14143.627    48277.912    8.7411293   -28605.949   -35029.602    36.944525 
Loop time of 0.0508909 on 1 procs for 4 steps with 3999 atoms

99.5% CPU use with 1 MPI tasks x no OpenMP threads

Minimization stats:
  Stopping criterion = energy tolerance
  Energy initial, next-to-last, final = 
        -14143.6267019     -14143.6267107      -14143.626712
  Force two-norm initial, final = 0.00680513 0.00278364
  Force max component initial, final = 0.00158467 0.00020107
  Final line search alpha, max atom move = 1 0.00020107
  Iterations, force evaluations = 4 8

MPI task timing breakdown:
Section |  min time  |  avg time  |  max time  |%varavg| %total
---------------------------------------------------------------
Pair    | 0.046281   | 0.046281   | 0.046281   |   0.0 | 90.94
Neigh   | 0          | 0          | 0          |   0.0 |  0.00
Comm    | 0.00020647 | 0.00020647 | 0.00020647 |   0.0 |  0.41
Output  | 0          | 0          | 0          |   0.0 |  0.00
Modify  | 0          | 0          | 0          |   0.0 |  0.00
Other   |            | 0.004404   |            |       |  8.65

Nlocal:    3999 ave 3999 max 3999 min
Histogram: 1 0 0 0 0 0 0 0 0 0
Nghost:    3806 ave 3806 max 3806 min
Histogram: 1 0 0 0 0 0 0 0 0 0
Neighs:    107946 ave 107946 max 107946 min
Histogram: 1 0 0 0 0 0 0 0 0 0

Total # of neighbors = 107946
Ave neighs/atom = 26.9932
Neighbor list builds = 0
Dangerous builds = 0

next            myLoop					# increment deformation step
jump            in.elastic loop				# end of the loop
change_box      all x delta 0.0 ${dx} remap units box	# deform the box
change_box      all x delta 0.0 0.0361492418294559 remap units box	
  orthogonal box = (0 0.000379085 0.000379085) to (36.9807 36.1496 36.1496)
minimize        1.0e-10 1.0e-10 100000 100000		# minimize the energy
WARNING: Using 'neigh_modify every 1 delay 0 check yes' setting during minimization (../min.cpp:168)
Per MPI rank memory allocation (min/avg/max) = 6.384 | 6.384 | 6.384 Mbytes
Step TotEng Volume Density Press Pxx Lx 
     129   -14142.572     48325.15    8.7325847   -29820.889   -36540.636    36.980674 
     130   -14142.572     48325.15    8.7325847   -29820.718   -36540.388    36.980674 
     131   -14142.572     48325.15    8.7325847     -29820.7   -36540.312    36.980674 
Loop time of 0.0328519 on 1 procs for 2 steps with 3999 atoms

98.6% CPU use with 1 MPI tasks x no OpenMP threads

Minimization stats:
  Stopping criterion = energy tolerance
  Energy initial, next-to-last, final = 
        -14142.5716045     -14142.5716088       -14142.57161
  Force two-norm initial, final = 0.00723618 0.00295193
  Force max component initial, final = 0.00177038 0.000344109
  Final line search alpha, max atom move = 1 0.000344109
  Iterations, force evaluations = 2 4

MPI task timing breakdown:
Section |  min time  |  avg time  |  max time  |%varavg| %total
---------------------------------------------------------------
Pair    | 0.025385   | 0.025385   | 0.025385   |   0.0 | 77.27
Neigh   | 0          | 0          | 0          |   0.0 |  0.00
Comm    | 0.00011349 | 0.00011349 | 0.00011349 |   0.0 |  0.35
Output  | 0.0035229  | 0.0035229  | 0.0035229  |   0.0 | 10.72
Modify  | 0          | 0          | 0          |   0.0 |  0.00
Other   |            | 0.003831   |            |       | 11.66

Nlocal:    3999 ave 3999 max 3999 min
Histogram: 1 0 0 0 0 0 0 0 0 0
Nghost:    3806 ave 3806 max 3806 min
Histogram: 1 0 0 0 0 0 0 0 0 0
Neighs:    107946 ave 107946 max 107946 min
Histogram: 1 0 0 0 0 0 0 0 0 0

Total # of neighbors = 107946
Ave neighs/atom = 26.9932
Neighbor list builds = 0
Dangerous builds = 0

next            myLoop					# increment deformation step
jump            in.elastic loop				# end of the loop
change_box      all x delta 0.0 ${dx} remap units box	# deform the box
change_box      all x delta 0.0 0.0361492418294559 remap units box	
  orthogonal box = (0 0.000379085 0.000379085) to (37.0168 36.1496 36.1496)
minimize        1.0e-10 1.0e-10 100000 100000		# minimize the energy
WARNING: Using 'neigh_modify every 1 delay 0 check yes' setting during minimization (../min.cpp:168)
Per MPI rank memory allocation (min/avg/max) = 6.384 | 6.384 | 6.384 Mbytes
Step TotEng Volume Density Press Pxx Lx 
     131   -14141.472    48372.389    8.7240568   -31028.491   -38044.396    37.016824 
     136   -14141.472    48372.389    8.7240568   -31028.377   -38043.871    37.016824 
Loop time of 0.0606432 on 1 procs for 5 steps with 3999 atoms

99.5% CPU use with 1 MPI tasks x no OpenMP threads

Minimization stats:
  Stopping criterion = energy tolerance
  Energy initial, next-to-last, final = 
         -14141.472063     -14141.4720742     -14141.4720752
  Force two-norm initial, final = 0.00709496 0.00249251
  Force max component initial, final = 0.00158388 0.000216446
  Final line search alpha, max atom move = 1 0.000216446
  Iterations, force evaluations = 5 10

MPI task timing breakdown:
Section |  min time  |  avg time  |  max time  |%varavg| %total
---------------------------------------------------------------
Pair    | 0.056155   | 0.056155   | 0.056155   |   0.0 | 92.60
Neigh   | 0          | 0          | 0          |   0.0 |  0.00
Comm    | 0.00023961 | 0.00023961 | 0.00023961 |   0.0 |  0.40
Output  | 0          | 0          | 0          |   0.0 |  0.00
Modify  | 0          | 0          | 0          |   0.0 |  0.00
Other   |            | 0.004248   |            |       |  7.01

Nlocal:    3999 ave 3999 max 3999 min
Histogram: 1 0 0 0 0 0 0 0 0 0
Nghost:    3806 ave 3806 max 3806 min
Histogram: 1 0 0 0 0 0 0 0 0 0
Neighs:    107946 ave 107946 max 107946 min
Histogram: 1 0 0 0 0 0 0 0 0 0

Total # of neighbors = 107946
Ave neighs/atom = 26.9932
Neighbor list builds = 0
Dangerous builds = 0

next            myLoop					# increment deformation step
jump            in.elastic loop				# end of the loop
change_box      all x delta 0.0 ${dx} remap units box	# deform the box
change_box      all x delta 0.0 0.0361492418294559 remap units box	
  orthogonal box = (0 0.000379085 0.000379085) to (37.053 36.1496 36.1496)
minimize        1.0e-10 1.0e-10 100000 100000		# minimize the energy
WARNING: Using 'neigh_modify every 1 delay 0 check yes' setting during minimization (../min.cpp:168)
Per MPI rank memory allocation (min/avg/max) = 6.384 | 6.384 | 6.384 Mbytes
Step TotEng Volume Density Press Pxx Lx 
     136   -14140.328    48419.628    8.7155455   -32229.033   -39540.995    37.052973 
[...]
  Force two-norm initial, final = 0.120682 0.00330162
  Force max component initial, final = 0.0115785 0.000581093
  Final line search alpha, max atom move = 1 0.000581093
  Iterations, force evaluations = 27 54

MPI task timing breakdown:
Section |  min time  |  avg time  |  max time  |%varavg| %total
---------------------------------------------------------------
Pair    | 0.30092    | 0.30092    | 0.30092    |   0.0 | 94.07
Neigh   | 0          | 0          | 0          |   0.0 |  0.00
Comm    | 0.00075102 | 0.00075102 | 0.00075102 |   0.0 |  0.23
Output  | 0.010384   | 0.010384   | 0.010384   |   0.0 |  3.25
Modify  | 0          | 0          | 0          |   0.0 |  0.00
Other   |            | 0.007832   |            |       |  2.45

Nlocal:    3999 ave 3999 max 3999 min
Histogram: 1 0 0 0 0 0 0 0 0 0
Nghost:    2638 ave 2638 max 2638 min
Histogram: 1 0 0 0 0 0 0 0 0 0
Neighs:    102281 ave 102281 max 102281 min
Histogram: 1 0 0 0 0 0 0 0 0 0

Total # of neighbors = 102281
Ave neighs/atom = 25.5766
Neighbor list builds = 0
Dangerous builds = 0

next            myLoop					# increment deformation step
jump            in.elastic loop				# end of the loop
change_box      all x delta 0.0 ${dx} remap units box	# deform the box
change_box      all x delta 0.0 0.0361492418294559 remap units box	
  orthogonal box = (0 0.000379085 0.000379085) to (53.5732 36.1496 36.1496)
minimize        1.0e-10 1.0e-10 100000 100000		# minimize the energy
WARNING: Using 'neigh_modify every 1 delay 0 check yes' setting during minimization (../min.cpp:168)
Per MPI rank memory allocation (min/avg/max) = 6.397 | 6.397 | 6.397 Mbytes
Step TotEng Volume Density Press Pxx Lx 
   15912   -13873.816    70007.696    6.0279582   -3248.9421   -826.26104    53.573176 
   15920   -13873.825    70007.696    6.0279582   -2810.6151   -227.84996    53.573176 
   15930   -13873.828    70007.696    6.0279582   -2649.7357   -12.418688    53.573176 
   15939   -13873.829    70007.696    6.0279582   -2642.8715   -4.7803078    53.573176 
Loop time of 0.316355 on 1 procs for 27 steps with 3999 atoms

99.6% CPU use with 1 MPI tasks x no OpenMP threads

Minimization stats:
  Stopping criterion = energy tolerance
  Energy initial, next-to-last, final = 
        -13873.8162767     -13873.8285347      -13873.828536
  Force two-norm initial, final = 0.120601 0.00329917
  Force max component initial, final = 0.0115723 0.000582628
  Final line search alpha, max atom move = 1 0.000582628
  Iterations, force evaluations = 27 54

MPI task timing breakdown:
Section |  min time  |  avg time  |  max time  |%varavg| %total
---------------------------------------------------------------
Pair    | 0.30081    | 0.30081    | 0.30081    |   0.0 | 95.09
Neigh   | 0          | 0          | 0          |   0.0 |  0.00
Comm    | 0.00078869 | 0.00078869 | 0.00078869 |   0.0 |  0.25
Output  | 0.0068929  | 0.0068929  | 0.0068929  |   0.0 |  2.18
Modify  | 0          | 0          | 0          |   0.0 |  0.00
Other   |            | 0.007866   |            |       |  2.49

Nlocal:    3999 ave 3999 max 3999 min
Histogram: 1 0 0 0 0 0 0 0 0 0
Nghost:    2638 ave 2638 max 2638 min
Histogram: 1 0 0 0 0 0 0 0 0 0
Neighs:    102281 ave 102281 max 102281 min
Histogram: 1 0 0 0 0 0 0 0 0 0

Total # of neighbors = 102281
Ave neighs/atom = 25.5766
Neighbor list builds = 0
Dangerous builds = 0

next            myLoop					# increment deformation step
jump            in.elastic loop				# end of the loop
change_box      all x delta 0.0 ${dx} remap units box	# deform the box
change_box      all x delta 0.0 0.0361492418294559 remap units box	
  orthogonal box = (0 0.000379085 0.000379085) to (53.6093 36.1496 36.1496)
minimize        1.0e-10 1.0e-10 100000 100000		# minimize the energy
WARNING: Using 'neigh_modify every 1 delay 0 check yes' setting during minimization (../min.cpp:168)
Per MPI rank memory allocation (min/avg/max) = 6.397 | 6.397 | 6.397 Mbytes
Step TotEng Volume Density Press Pxx Lx 
   15939   -13873.816    70054.934    6.0238935   -3246.3401   -825.14653    53.609326 
   15940   -13873.818    70054.934    6.0238935   -3186.9042   -739.02027    53.609326 
   15950   -13873.828    70054.934    6.0238935   -2670.7896   -43.927678    53.609326 
   15960   -13873.829    70054.934    6.0238935    -2644.782   -8.6373878    53.609326 
   15966   -13873.829    70054.934    6.0238935   -2641.0867   -4.7735836    53.609326 
Loop time of 0.323642 on 1 procs for 27 steps with 3999 atoms

99.0% CPU use with 1 MPI tasks x no OpenMP threads

Minimization stats:
  Stopping criterion = energy tolerance
  Energy initial, next-to-last, final = 
        -13873.8162932     -13873.8285347      -13873.828536
  Force two-norm initial, final = 0.12052 0.00329805
  Force max component initial, final = 0.0115662 0.00058397
  Final line search alpha, max atom move = 1 0.00058397
  Iterations, force evaluations = 27 54

MPI task timing breakdown:
Section |  min time  |  avg time  |  max time  |%varavg| %total
---------------------------------------------------------------
Pair    | 0.30269    | 0.30269    | 0.30269    |   0.0 | 93.53
Neigh   | 0          | 0          | 0          |   0.0 |  0.00
Comm    | 0.00076103 | 0.00076103 | 0.00076103 |   0.0 |  0.24
Output  | 0.012182   | 0.012182   | 0.012182   |   0.0 |  3.76
Modify  | 0          | 0          | 0          |   0.0 |  0.00
Other   |            | 0.008007   |            |       |  2.47

Nlocal:    3999 ave 3999 max 3999 min
Histogram: 1 0 0 0 0 0 0 0 0 0
Nghost:    2638 ave 2638 max 2638 min
Histogram: 1 0 0 0 0 0 0 0 0 0
Neighs:    102281 ave 102281 max 102281 min
Histogram: 1 0 0 0 0 0 0 0 0 0

Total # of neighbors = 102281
Ave neighs/atom = 25.5766
Neighbor list builds = 0
Dangerous builds = 0

next            myLoop					# increment deformation step
jump            in.elastic loop				# end of the loop
change_box      all x delta 0.0 ${dx} remap units box	# deform the box
change_box      all x delta 0.0 0.0361492418294559 remap units box	
  orthogonal box = (0 0.000379085 0.000379085) to (53.6455 36.1496 36.1496)
minimize        1.0e-10 1.0e-10 100000 100000		# minimize the energy
WARNING: Using 'neigh_modify every 1 delay 0 check yes' setting during minimization (../min.cpp:168)
Per MPI rank memory allocation (min/avg/max) = 6.397 | 6.397 | 6.397 Mbytes
Step TotEng Volume Density Press Pxx Lx 
   15966   -13873.816    70102.173    6.0198343   -3243.7426   -824.03491    53.645475 
   15970   -13873.821    70102.173    6.0198343   -3030.9617   -511.84964    53.645475 
   15980   -13873.828    70102.173    6.0198343    -2652.322   -21.226787    53.645475 
   15990   -13873.829    70102.173    6.0198343   -2640.3964   -6.3815582    53.645475 
   15993   -13873.829    70102.173    6.0198343   -2639.3038   -4.7662305    53.645475 
Loop time of 0.320291 on 1 procs for 27 steps with 3999 atoms

99.5% CPU use with 1 MPI tasks x no OpenMP threads

Minimization stats:
  Stopping criterion = energy tolerance
  Energy initial, next-to-last, final = 
        -13873.8163097     -13873.8285347      -13873.828536
  Force two-norm initial, final = 0.12044 0.00329561
  Force max component initial, final = 0.01156 0.000585488
  Final line search alpha, max atom move = 1 0.000585488
  Iterations, force evaluations = 27 54

MPI task timing breakdown:
Section |  min time  |  avg time  |  max time  |%varavg| %total
---------------------------------------------------------------
Pair    | 0.30125    | 0.30125    | 0.30125    |   0.0 | 94.06
Neigh   | 0          | 0          | 0          |   0.0 |  0.00
Comm    | 0.00076032 | 0.00076032 | 0.00076032 |   0.0 |  0.24
Output  | 0.010257   | 0.010257   | 0.010257   |   0.0 |  3.20
Modify  | 0          | 0          | 0          |   0.0 |  0.00
Other   |            | 0.008021   |            |       |  2.50

Nlocal:    3999 ave 3999 max 3999 min
Histogram: 1 0 0 0 0 0 0 0 0 0
Nghost:    2638 ave 2638 max 2638 min
Histogram: 1 0 0 0 0 0 0 0 0 0
Neighs:    102281 ave 102281 max 102281 min
Histogram: 1 0 0 0 0 0 0 0 0 0

Total # of neighbors = 102281
Ave neighs/atom = 25.5766
Neighbor list builds = 0
Dangerous builds = 0

next            myLoop					# increment deformation step
jump            in.elastic loop				# end of the loop
change_box      all x delta 0.0 ${dx} remap units box	# deform the box
change_box      all x delta 0.0 0.0361492418294559 remap units box	
  orthogonal box = (0 0.000379085 0.000379085) to (53.6816 36.1496 36.1496)
minimize        1.0e-10 1.0e-10 100000 100000		# minimize the energy
WARNING: Using 'neigh_modify every 1 delay 0 check yes' setting during minimization (../min.cpp:168)
Per MPI rank memory allocation (min/avg/max) = 6.397 | 6.397 | 6.397 Mbytes
Step TotEng Volume Density Press Pxx Lx 
   15993   -13873.816    70149.412    6.0157806   -3241.1487    -822.9249    53.681624 
   16000   -13873.824    70149.412    6.0157806   -2867.1275   -305.94002    53.681624 
   16010   -13873.828    70149.412    6.0157806   -2645.6944   -14.433287    53.681624 
   16020   -13873.829    70149.412    6.0157806   -2637.5238   -4.7595448    53.681624 
Loop time of 0.319655 on 1 procs for 27 steps with 3999 atoms

99.1% CPU use with 1 MPI tasks x no OpenMP threads

Minimization stats:
  Stopping criterion = energy tolerance
  Energy initial, next-to-last, final = 
        -13873.8163262     -13873.8285347      -13873.828536
  Force two-norm initial, final = 0.12036 0.00329449
  Force max component initial, final = 0.011554 0.000586805
  Final line search alpha, max atom move = 1 0.000586805
  Iterations, force evaluations = 27 54

MPI task timing breakdown:
Section |  min time  |  avg time  |  max time  |%varavg| %total
---------------------------------------------------------------
Pair    | 0.30231    | 0.30231    | 0.30231    |   0.0 | 94.57
Neigh   | 0          | 0          | 0          |   0.0 |  0.00
Comm    | 0.00078249 | 0.00078249 | 0.00078249 |   0.0 |  0.24
Output  | 0.008136   | 0.008136   | 0.008136   |   0.0 |  2.55
Modify  | 0          | 0          | 0          |   0.0 |  0.00
Other   |            | 0.008429   |            |       |  2.64

Nlocal:    3999 ave 3999 max 3999 min
Histogram: 1 0 0 0 0 0 0 0 0 0
Nghost:    2638 ave 2638 max 2638 min
Histogram: 1 0 0 0 0 0 0 0 0 0
Neighs:    102281 ave 102281 max 102281 min
Histogram: 1 0 0 0 0 0 0 0 0 0

Total # of neighbors = 102281
Ave neighs/atom = 25.5766
Neighbor list builds = 0
Dangerous builds = 0

next            myLoop					# increment deformation step
jump            in.elastic loop				# end of the loop
change_box      all x delta 0.0 ${dx} remap units box	# deform the box
change_box      all x delta 0.0 0.0361492418294559 remap units box	
  orthogonal box = (0 0.000379085 0.000379085) to (53.7178 36.1496 36.1496)
minimize        1.0e-10 1.0e-10 100000 100000		# minimize the energy
WARNING: Using 'neigh_modify every 1 delay 0 check yes' setting during minimization (../min.cpp:168)
Per MPI rank memory allocation (min/avg/max) = 6.397 | 6.397 | 6.397 Mbytes
Step TotEng Volume Density Press Pxx Lx 
   16020   -13873.816     70196.65    6.0117322   -3238.5593   -821.81777    53.717773 
   16030   -13873.828     70196.65    6.0117322   -2687.0043   -73.452065    53.717773 
   16040   -13873.829     70196.65    6.0117322   -2640.2982   -9.4439429    53.717773 
   16047   -13873.829     70196.65    6.0117322   -2635.7457   -4.7522239    53.717773 
Loop time of 0.31676 on 1 procs for 27 steps with 3999 atoms

99.7% CPU use with 1 MPI tasks x no OpenMP threads

Minimization stats:
  Stopping criterion = energy tolerance
  Energy initial, next-to-last, final = 
        -13873.8163427     -13873.8285347      -13873.828536
  Force two-norm initial, final = 0.12028 0.00329205
  Force max component initial, final = 0.0115477 0.000588307
  Final line search alpha, max atom move = 1 0.000588307
  Iterations, force evaluations = 27 54

MPI task timing breakdown:
Section |  min time  |  avg time  |  max time  |%varavg| %total
---------------------------------------------------------------
Pair    | 0.30128    | 0.30128    | 0.30128    |   0.0 | 95.11
Neigh   | 0          | 0          | 0          |   0.0 |  0.00
Comm    | 0.00075197 | 0.00075197 | 0.00075197 |   0.0 |  0.24
Output  | 0.0069108  | 0.0069108  | 0.0069108  |   0.0 |  2.18
Modify  | 0          | 0          | 0          |   0.0 |  0.00
Other   |            | 0.007821   |            |       |  2.47

Nlocal:    3999 ave 3999 max 3999 min
Histogram: 1 0 0 0 0 0 0 0 0 0
Nghost:    2638 ave 2638 max 2638 min
Histogram: 1 0 0 0 0 0 0 0 0 0
Neighs:    102281 ave 102281 max 102281 min
Histogram: 1 0 0 0 0 0 0 0 0 0

Total # of neighbors = 102281
Ave neighs/atom = 25.5766
Neighbor list builds = 0
Dangerous builds = 0

next            myLoop					# increment deformation step
jump            in.elastic loop				# end of the loop
change_box      all x delta 0.0 ${dx} remap units box	# deform the box
change_box      all x delta 0.0 0.0361492418294559 remap units box	
  orthogonal box = (0 0.000379085 0.000379085) to (53.7539 36.1496 36.1496)
minimize        1.0e-10 1.0e-10 100000 100000		# minimize the energy
WARNING: Using 'neigh_modify every 1 delay 0 check yes' setting during minimization (../min.cpp:168)
Per MPI rank memory allocation (min/avg/max) = 6.397 | 6.397 | 6.397 Mbytes
Step TotEng Volume Density Press Pxx Lx 
   16047   -13873.816    70243.889    6.0076894   -3235.9734   -820.71224    53.753923 
   16050    -13873.82    70243.889    6.0076894   -3078.4834   -588.02225    53.753923 
   16060   -13873.828    70243.889    6.0076894   -2650.3792   -25.468433    53.753923 
   16070   -13873.829    70243.889    6.0076894   -2635.7225    -7.035155    53.753923 
   16074   -13873.829    70243.889    6.0076894   -2633.9706   -4.7455765    53.753923 
Loop time of 0.322166 on 1 procs for 27 steps with 3999 atoms

99.3% CPU use with 1 MPI tasks x no OpenMP threads

Minimization stats:
  Stopping criterion = energy tolerance
  Energy initial, next-to-last, final = 
        -13873.8163591     -13873.8285347      -13873.828536
  Force two-norm initial, final = 0.120199 0.00329094
  Force max component initial, final = 0.0115417 0.0005896
  Final line search alpha, max atom move = 1 0.0005896
  Iterations, force evaluations = 27 54

MPI task timing breakdown:
Section |  min time  |  avg time  |  max time  |%varavg| %total
---------------------------------------------------------------
Pair    | 0.30191    | 0.30191    | 0.30191    |   0.0 | 93.71
Neigh   | 0          | 0          | 0          |   0.0 |  0.00
Comm    | 0.00075078 | 0.00075078 | 0.00075078 |   0.0 |  0.23
Output  | 0.01046    | 0.01046    | 0.01046    |   0.0 |  3.25
Modify  | 0          | 0          | 0          |   0.0 |  0.00
Other   |            | 0.009043   |            |       |  2.81

Nlocal:    3999 ave 3999 max 3999 min
Histogram: 1 0 0 0 0 0 0 0 0 0
Nghost:    2638 ave 2638 max 2638 min
Histogram: 1 0 0 0 0 0 0 0 0 0
Neighs:    102281 ave 102281 max 102281 min
Histogram: 1 0 0 0 0 0 0 0 0 0

Total # of neighbors = 102281
Ave neighs/atom = 25.5766
Neighbor list builds = 0
Dangerous builds = 0

next            myLoop					# increment deformation step
jump            in.elastic loop				# end of the loop
change_box      all x delta 0.0 ${dx} remap units box	# deform the box
change_box      all x delta 0.0 0.0361492418294559 remap units box	
  orthogonal box = (0 0.000379085 0.000379085) to (53.7901 36.1496 36.1496)
minimize        1.0e-10 1.0e-10 100000 100000		# minimize the energy
WARNING: Using 'neigh_modify every 1 delay 0 check yes' setting during minimization (../min.cpp:168)
Per MPI rank memory allocation (min/avg/max) = 6.397 | 6.397 | 6.397 Mbytes
Step TotEng Volume Density Press Pxx Lx 
   16074   -13873.816    70291.128     6.003652   -3233.3921   -819.60958    53.790072 
   16080   -13873.823    70291.128     6.003652   -2914.3259   -371.84982    53.790072 
   16090   -13873.828    70291.128     6.003652   -2641.6347   -16.425075    53.790072 
   16100   -13873.829    70291.128     6.003652   -2632.5468   -5.3206125    53.790072 
   16101   -13873.829    70291.128     6.003652   -2632.1973   -4.7382876    53.790072 
Loop time of 0.324059 on 1 procs for 27 steps with 3999 atoms

99.4% CPU use with 1 MPI tasks x no OpenMP threads

Minimization stats:
  Stopping criterion = energy tolerance
  Energy initial, next-to-last, final = 
        -13873.8163755     -13873.8285347      -13873.828536
  Force two-norm initial, final = 0.12012 0.00328851
  Force max component initial, final = 0.0115355 0.000591085
  Final line search alpha, max atom move = 1 0.000591085
  Iterations, force evaluations = 27 54

MPI task timing breakdown:
Section |  min time  |  avg time  |  max time  |%varavg| %total
---------------------------------------------------------------
Pair    | 0.30498    | 0.30498    | 0.30498    |   0.0 | 94.11
Neigh   | 0          | 0          | 0          |   0.0 |  0.00
Comm    | 0.00080442 | 0.00080442 | 0.00080442 |   0.0 |  0.25
Output  | 0.010257   | 0.010257   | 0.010257   |   0.0 |  3.17
Modify  | 0          | 0          | 0          |   0.0 |  0.00
Other   |            | 0.008013   |            |       |  2.47

Nlocal:    3999 ave 3999 max 3999 min
Histogram: 1 0 0 0 0 0 0 0 0 0
Nghost:    2638 ave 2638 max 2638 min
Histogram: 1 0 0 0 0 0 0 0 0 0
Neighs:    102281 ave 102281 max 102281 min
Histogram: 1 0 0 0 0 0 0 0 0 0

Total # of neighbors = 102281
Ave neighs/atom = 25.5766
Neighbor list builds = 0
Dangerous builds = 0

next            myLoop					# increment deformation step
jump            in.elastic loop				# end of the loop
change_box      all x delta 0.0 ${dx} remap units box	# deform the box
change_box      all x delta 0.0 0.0361492418294559 remap units box	
  orthogonal box = (0 0.000379085 0.000379085) to (53.8262 36.1496 36.1496)
minimize        1.0e-10 1.0e-10 100000 100000		# minimize the energy
WARNING: Using 'neigh_modify every 1 delay 0 check yes' setting during minimization (../min.cpp:168)
Per MPI rank memory allocation (min/avg/max) = 6.397 | 6.397 | 6.397 Mbytes
Step TotEng Volume Density Press Pxx Lx 
   16101   -13873.816    70338.366      5.99962   -3230.8143   -818.50849    53.826221 
   16110   -13873.827    70338.366      5.99962   -2733.2685   -141.77962    53.826221 
   16120   -13873.829    70338.366      5.99962     -2635.92   -10.577816    53.826221 
   16128   -13873.829    70338.366      5.99962   -2630.4269   -4.7316782    53.826221 
Loop time of 0.319383 on 1 procs for 27 steps with 3999 atoms

99.5% CPU use with 1 MPI tasks x no OpenMP threads

Minimization stats:
  Stopping criterion = energy tolerance
  Energy initial, next-to-last, final = 
        -13873.8163918     -13873.8285347      -13873.828536
  Force two-norm initial, final = 0.120039 0.0032874
  Force max component initial, final = 0.0115294 0.000592354
  Final line search alpha, max atom move = 1 0.000592354
  Iterations, force evaluations = 27 54

MPI task timing breakdown:
Section |  min time  |  avg time  |  max time  |%varavg| %total
---------------------------------------------------------------
Pair    | 0.30317    | 0.30317    | 0.30317    |   0.0 | 94.92
Neigh   | 0          | 0          | 0          |   0.0 |  0.00
Comm    | 0.00076675 | 0.00076675 | 0.00076675 |   0.0 |  0.24
Output  | 0.0069361  | 0.0069361  | 0.0069361  |   0.0 |  2.17
Modify  | 0          | 0          | 0          |   0.0 |  0.00
Other   |            | 0.008515   |            |       |  2.67

Nlocal:    3999 ave 3999 max 3999 min
Histogram: 1 0 0 0 0 0 0 0 0 0
Nghost:    2638 ave 2638 max 2638 min
Histogram: 1 0 0 0 0 0 0 0 0 0
Neighs:    102281 ave 102281 max 102281 min
Histogram: 1 0 0 0 0 0 0 0 0 0

Total # of neighbors = 102281
Ave neighs/atom = 25.5766
Neighbor list builds = 0
Dangerous builds = 0

next            myLoop					# increment deformation step
jump            in.elastic loop				# end of the loop

undump		2
Total wall time: 0:03:21
