LAMMPS (7 Aug 2019)
Reading data file ...
  orthogonal box = (-1.4719 -1.4719 -1.4719) to (26.4719 26.4719 26.4719)
  1 by 1 by 1 MPI processor grid
  reading atoms ...
  500 atoms
  reading velocities ...
  500 velocities
  read_data CPU = 0.00354409 secs
Neighbor list info ...
  update every 1 steps, delay 10 steps, check yes
  max neighbors/atom: 2000, page size: 100000
  master list distance cutoff = 8
  ghost atom cutoff = 8
  binsize = 4, bins = 7 7 7
  1 neighbor lists, perpetual/occasional/extra = 1 0 0
  (1) pair lj/cut, perpetual
      attributes: half, newton on
      pair build: half/bin/atomonly/newton
      stencil: half/bin/3d/newton
      bin: standard
Setting up Verlet run ...
  Unit style    : real
  Current step  : 0
  Time step     : 1
Per MPI rank memory allocation (min/avg/max) = 3.998 | 3.998 | 3.998 Mbytes
Step Temp PotEng Press Volume Density Lx 
       0   0.94924373   -1315.7856    26.487323    21820.062    3.1885758    27.943791 
      10   0.94792621   -1315.7829    26.525006    21820.062    3.1885758    27.943791 
      20   0.94693307   -1315.7792    26.579503    21820.062    3.1885758    27.943791 
      30   0.94631329   -1315.7745    26.650867    21820.062    3.1885758    27.943791 
      40    0.9461264   -1315.7688    26.739162    21820.062    3.1885758    27.943791 
      50   0.94643418   -1315.7622    26.844438    21820.062    3.1885758    27.943791 
      60   0.94728558   -1315.7546    26.966693    21820.062    3.1885758    27.943791 
      70    0.9486928    -1315.746    27.105792    21820.062    3.1885758    27.943791 
      80    0.9505991   -1315.7364    27.261373    21820.062    3.1885758    27.943791 
      90   0.95284498   -1315.7259    27.432729    21820.062    3.1885758    27.943791 
     100     0.955148   -1315.7145    27.618728    21820.062    3.1885758    27.943791 
     110   0.95711659   -1315.7021    27.817833    21820.062    3.1885758    27.943791 
     120   0.95831072   -1315.6889    28.028265    21820.062    3.1885758    27.943791 
     130   0.95833768   -1315.6748    28.248278    21820.062    3.1885758    27.943791 
     140    0.9569462   -1315.6598    28.476453    21820.062    3.1885758    27.943791 
     150   0.95407715    -1315.644    28.711863    21820.062    3.1885758    27.943791 
     160   0.94985251   -1315.6275    28.954066    21820.062    3.1885758    27.943791 
     170   0.94451836   -1315.6103    29.202964    21820.062    3.1885758    27.943791 
     180   0.93837649   -1315.5925    29.458621    21820.062    3.1885758    27.943791 
     190    0.9317321   -1315.5741    29.721127    21820.062    3.1885758    27.943791 
     200   0.92486531   -1315.5551    29.990531    21820.062    3.1885758    27.943791 
     210   0.91801937   -1315.5356    30.266822    21820.062    3.1885758    27.943791 
     220   0.91139571   -1315.5156    30.549926    21820.062    3.1885758    27.943791 
     230   0.90514948   -1315.4953    30.839699    21820.062    3.1885758    27.943791 
     240   0.89938332   -1315.4745    31.135914    21820.062    3.1885758    27.943791 
     250   0.89414048   -1315.4533     31.43824    21820.062    3.1885758    27.943791 
     260   0.88940117   -1315.4319    31.746222    21820.062    3.1885758    27.943791 
     270   0.88508687     -1315.41    32.059287    21820.062    3.1885758    27.943791 
     280   0.88107628   -1315.3879    32.376782    21820.062    3.1885758    27.943791 
     290   0.87723199   -1315.3655    32.698051    21820.062    3.1885758    27.943791 
     300    0.8734308   -1315.3428    33.022513    21820.062    3.1885758    27.943791 
     310   0.86958793   -1315.3198    33.349749    21820.062    3.1885758    27.943791 
     320   0.86566721   -1315.2965    33.679526    21820.062    3.1885758    27.943791 
     330   0.86167649    -1315.273    34.011791    21820.062    3.1885758    27.943791 
     340   0.85765293   -1315.2492    34.346629    21820.062    3.1885758    27.943791 
     350   0.85364537   -1315.2252    34.684208    21820.062    3.1885758    27.943791 
     360   0.84969916   -1315.2009     35.02473    21820.062    3.1885758    27.943791 
     370    0.8458463   -1315.1764    35.368394    21820.062    3.1885758    27.943791 
     380   0.84210164   -1315.1516    35.715376    21820.062    3.1885758    27.943791 
     390   0.83846397   -1315.1266    36.065825    21820.062    3.1885758    27.943791 
     400   0.83492047   -1315.1013    36.419869    21820.062    3.1885758    27.943791 
     410   0.83145237   -1315.0757     36.77762    21820.062    3.1885758    27.943791 
     420   0.82804015   -1315.0498     37.13919    21820.062    3.1885758    27.943791 
     430   0.82466698   -1315.0236    37.504691    21820.062    3.1885758    27.943791 
     440   0.82132035   -1314.9972    37.874236    21820.062    3.1885758    27.943791 
     450   0.81799193   -1314.9704    38.247938    21820.062    3.1885758    27.943791 
     460    0.8146767   -1314.9434    38.625901    21820.062    3.1885758    27.943791 
     470    0.8113717    -1314.916    39.008218    21820.062    3.1885758    27.943791 
     480   0.80807516   -1314.8884    39.394963    21820.062    3.1885758    27.943791 
     490   0.80478594   -1314.8605    39.786189    21820.062    3.1885758    27.943791 
     500   0.80150339   -1314.8323     40.18193    21820.062    3.1885758    27.943791 
     510   0.79822742   -1314.8038    40.582198    21820.062    3.1885758    27.943791 
     520   0.79495863    -1314.775    40.986988    21820.062    3.1885758    27.943791 
     530    0.7916984    -1314.746    41.396277    21820.062    3.1885758    27.943791 
     540    0.7884489   -1314.7167    41.810026    21820.062    3.1885758    27.943791 
     550   0.78521303   -1314.6871    42.228186    21820.062    3.1885758    27.943791 
     560   0.78199431   -1314.6574    42.650697    21820.062    3.1885758    27.943791 
     570   0.77879672   -1314.6273    43.077489    21820.062    3.1885758    27.943791 
     580   0.77562457   -1314.5971    43.508487    21820.062    3.1885758    27.943791 
     590   0.77248239   -1314.5667    43.943611    21820.062    3.1885758    27.943791 
     600   0.76937482   -1314.5361     44.38278    21820.062    3.1885758    27.943791 
     610   0.76630657   -1314.5053    44.825908    21820.062    3.1885758    27.943791 
     620   0.76328233   -1314.4743    45.272909    21820.062    3.1885758    27.943791 
     630   0.76030679   -1314.4432    45.723697    21820.062    3.1885758    27.943791 
     640   0.75738463   -1314.4119    46.178183    21820.062    3.1885758    27.943791 
     650   0.75452058   -1314.3805    46.636273    21820.062    3.1885758    27.943791 
     660   0.75171948   -1314.3489    47.097871    21820.062    3.1885758    27.943791 
     670    0.7489864   -1314.3173    47.562872    21820.062    3.1885758    27.943791 
     680   0.74632672   -1314.2855    48.031161    21820.062    3.1885758    27.943791 
     690   0.74374634   -1314.2537    48.502607    21820.062    3.1885758    27.943791 
     700   0.74125179   -1314.2217    48.977063    21820.062    3.1885758    27.943791 
     710   0.73885046   -1314.1897    49.454361    21820.062    3.1885758    27.943791 
     720   0.73655076   -1314.1577    49.934305    21820.062    3.1885758    27.943791 
     730   0.73436228   -1314.1256     50.41667    21820.062    3.1885758    27.943791 
     740   0.73229605   -1314.0936    50.901197    21820.062    3.1885758    27.943791 
     750   0.73036459   -1314.0615    51.387592    21820.062    3.1885758    27.943791 
     760   0.72858215   -1314.0295     51.87552    21820.062    3.1885758    27.943791 
     770   0.72696474   -1313.9975    52.364605    21820.062    3.1885758    27.943791 
     780   0.72553022   -1313.9656    52.854428    21820.062    3.1885758    27.943791 
     790   0.72429833   -1313.9338     53.34453    21820.062    3.1885758    27.943791 
     800   0.72329063   -1313.9022    53.834409    21820.062    3.1885758    27.943791 
     810   0.72253042   -1313.8708    54.323527    21820.062    3.1885758    27.943791 
     820    0.7220426   -1313.8396    54.811307    21820.062    3.1885758    27.943791 
     830   0.72185343   -1313.8086    55.297147    21820.062    3.1885758    27.943791 
     840   0.72199029    -1313.778    55.780418    21820.062    3.1885758    27.943791 
     850    0.7224813   -1313.7477    56.260474    21820.062    3.1885758    27.943791 
     860   0.72335498   -1313.7178    56.736662    21820.062    3.1885758    27.943791 
     870   0.72463978   -1313.6883    57.208327    21820.062    3.1885758    27.943791 
     880   0.72636363   -1313.6593    57.674824    21820.062    3.1885758    27.943791 
     890    0.7285534   -1313.6308    58.135527    21820.062    3.1885758    27.943791 
     900   0.73124266   -1313.5783    58.741321    21820.062    3.1885758    27.943791 
     910    0.7344698   -1313.5509    59.188515    21820.062    3.1885758    27.943791 
     920   0.73822927   -1313.5242    59.628288    21820.062    3.1885758    27.943791 
     930   0.74253796   -1313.4981    60.060179    21820.062    3.1885758    27.943791 
     940   0.74740928   -1313.4727    60.483787    21820.062    3.1885758    27.943791 
     950   0.75285814   -1313.4234     61.05027    21820.062    3.1885758    27.943791 
     960   0.75888806   -1313.3993    61.456347    21820.062    3.1885758    27.943791 
     970   0.76549149   -1313.3759    61.853389    21820.062    3.1885758    27.943791 
     980   0.77266382   -1313.3533    62.241261    21820.062    3.1885758    27.943791 
     990    0.7803956   -1313.3313    62.619886    21820.062    3.1885758    27.943791 
    1000   0.78867247     -1313.31    62.989249    21820.062    3.1885758    27.943791 
    1010   0.79747537   -1313.2894    63.349383    21820.062    3.1885758    27.943791 
    1020   0.80678064   -1313.2695    63.700359    21820.062    3.1885758    27.943791 
    1030    0.8165604   -1313.2503    64.042281    21820.062    3.1885758    27.943791 
    1040   0.82678294   -1313.2317    64.375268    21820.062    3.1885758    27.943791 
    1050   0.83741318   -1313.2137    64.699441    21820.062    3.1885758    27.943791 
    1060   0.84841323   -1313.1964    65.014908    21820.062    3.1885758    27.943791 
    1070   0.85974294   -1313.1796    65.321754    21820.062    3.1885758    27.943791 
    1080   0.87136049   -1313.1635    65.620016    21820.062    3.1885758    27.943791 
    1090   0.88323592   -1313.1479    65.909597    21820.062    3.1885758    27.943791 
    1100   0.89532227    -1313.133    66.190427    21820.062    3.1885758    27.943791 
    1110   0.90756781   -1313.1187    66.462381    21820.062    3.1885758    27.943791 
    1120   0.91992861    -1313.105    66.725199    21820.062    3.1885758    27.943791 
    1130   0.93236116   -1313.0919    66.978521    21820.062    3.1885758    27.943791 
    1140   0.94482245   -1313.0794    67.221878    21820.062    3.1885758    27.943791 
    1150    0.9572698   -1313.0676    67.454689    21820.062    3.1885758    27.943791 
    1160   0.96966862    -1313.032    67.827744    21820.062    3.1885758    27.943791 
    1170   0.98197105   -1313.0216    68.037251    21820.062    3.1885758    27.943791 
    1180   0.99412498   -1313.0121     68.23387    21820.062    3.1885758    27.943791 
    1190    1.0060838   -1313.0035    68.416591    21820.062    3.1885758    27.943791 
    1200     1.017798   -1313.0203    68.432794    21820.062    3.1885758    27.943791 
    1210    1.0292212   -1313.0135    68.584274    21820.062    3.1885758    27.943791 
    1220     1.040288   -1313.0078    68.718282    21820.062    3.1885758    27.943791 
    1230    1.0509314   -1313.0033    68.833513    21820.062    3.1885758    27.943791 
    1240     1.061076   -1312.9753    69.080144    21820.062    3.1885758    27.943791 
    1250    1.0706495   -1312.9732    69.153694    21820.062    3.1885758    27.943791 
    1260    1.0795395   -1312.9725    69.204423    21820.062    3.1885758    27.943791 
    1270    1.0876401   -1312.9732    69.230974    21820.062    3.1885758    27.943791 
    1280     1.094837   -1312.9753    69.232031    21820.062    3.1885758    27.943791 
    1290    1.1010109   -1312.9789    69.206341    21820.062    3.1885758    27.943791 
    1300     1.106044   -1312.9842    69.152753    21820.062    3.1885758    27.943791 
    1310    1.1098306   -1313.0156    68.918738    21820.062    3.1885758    27.943791 
    1320    1.1123342   -1313.0488    68.654649    21820.062    3.1885758    27.943791 
    1330    1.1134672   -1313.0591    68.511671    21820.062    3.1885758    27.943791 
    1340    1.1132357   -1313.0711    68.338021    21820.062    3.1885758    27.943791 
    1350     1.111728   -1313.0603    68.285256    21820.062    3.1885758    27.943791 
    1360    1.1090918   -1313.0758    68.050883    21820.062    3.1885758    27.943791 
    1370    1.1055588    -1313.093     67.78725    21820.062    3.1885758    27.943791 
    1380    1.1014201   -1313.1119    67.495481    21820.062    3.1885758    27.943791 
    1390    1.0969962   -1313.1326    67.176904    21820.062    3.1885758    27.943791 
    1400    1.0926025   -1313.1549    66.832947    21820.062    3.1885758    27.943791 
    1410    1.0885203   -1313.1788    66.465042    21820.062    3.1885758    27.943791 
    1420    1.0849758   -1313.2043    66.074563    21820.062    3.1885758    27.943791 
    1430    1.0821315   -1313.2313    65.662797    21820.062    3.1885758    27.943791 
    1440    1.0800873   -1313.2598    65.230947    21820.062    3.1885758    27.943791 
    1450    1.0788871   -1313.2898    64.780147    21820.062    3.1885758    27.943791 
    1460    1.0785288    -1313.321     64.31149    21820.062    3.1885758    27.943791 
    1470    1.0789741   -1313.3536    63.826051    21820.062    3.1885758    27.943791 
    1480    1.0801652   -1313.4118    63.173337    21820.062    3.1885758    27.943791 
    1490    1.0820198   -1313.4467    62.657418    21820.062    3.1885758    27.943791 
    1500    1.0844366   -1313.4825    62.127901    21820.062    3.1885758    27.943791 
    1510    1.0873156   -1313.5438    61.434369    21820.062    3.1885758    27.943791 
    1520    1.0905656   -1313.5814    60.880881    21820.062    3.1885758    27.943791 
    1530    1.0940699   -1313.6197    60.317125    21820.062    3.1885758    27.943791 
    1540    1.0977304   -1313.6587    59.744244    21820.062    3.1885758    27.943791 
    1550     1.101456   -1313.6982    59.163374    21820.062    3.1885758    27.943791 
    1560    1.1051644   -1313.7382     58.57564    21820.062    3.1885758    27.943791 
    1570    1.1087834   -1313.7785    57.982143    21820.062    3.1885758    27.943791 
    1580    1.1122564   -1313.7945    57.535447    21820.062    3.1885758    27.943791 
    1590    1.1155342   -1313.8353    56.933536    21820.062    3.1885758    27.943791 
    1600    1.1185646   -1313.8762    56.328979    21820.062    3.1885758    27.943791 
    1610     1.121316   -1313.9171    55.722698    21820.062    3.1885758    27.943791 
    1620    1.1237652   -1313.9581    55.115548    21820.062    3.1885758    27.943791 
    1630    1.1258972   -1313.9989    54.508312    21820.062    3.1885758    27.943791 
    1640    1.1277034   -1314.0397      53.9017    21820.062    3.1885758    27.943791 
    1650    1.1291815   -1314.0802    53.296346    21820.062    3.1885758    27.943791 
    1660    1.1303338   -1314.1206    52.692804    21820.062    3.1885758    27.943791 
    1670    1.1311669   -1314.1607    52.091556    21820.062    3.1885758    27.943791 
    1680    1.1316907   -1314.2005    51.493009    21820.062    3.1885758    27.943791 
    1690    1.1319182     -1314.24    50.897499    21820.062    3.1885758    27.943791 
    1700    1.1318643   -1314.2792    50.305298    21820.062    3.1885758    27.943791 
    1710    1.1315457   -1314.3181    49.716618    21820.062    3.1885758    27.943791 
    1720    1.1309806   -1314.3567    49.131617    21820.062    3.1885758    27.943791 
    1730    1.1301877   -1314.3949    48.550406    21820.062    3.1885758    27.943791 
    1740    1.1291862   -1314.4327    47.973055    21820.062    3.1885758    27.943791 
    1750    1.1279956   -1314.4702    47.399599    21820.062    3.1885758    27.943791 
    1760    1.1266349   -1314.5074    46.830049    21820.062    3.1885758    27.943791 
    1770    1.1251303   -1314.5687    46.112829    21820.062    3.1885758    27.943791 
    1780    1.1235037   -1314.6052    45.550894    21820.062    3.1885758    27.943791 
    1790    1.1217626   -1314.6413    44.992742    21820.062    3.1885758    27.943791 
    1800    1.1199218   -1314.6771    44.438349    21820.062    3.1885758    27.943791 
    1810    1.1179944   -1314.7126      43.8877    21820.062    3.1885758    27.943791 
    1820    1.1159918   -1314.7477    43.340794    21820.062    3.1885758    27.943791 
    1830    1.1139237   -1314.7825    42.797651    21820.062    3.1885758    27.943791 
    1840    1.1117978    -1314.817    42.258319    21820.062    3.1885758    27.943791 
    1850    1.1096198   -1314.8511    41.722874    21820.062    3.1885758    27.943791 
    1860    1.1073931   -1314.8849    41.191431    21820.062    3.1885758    27.943791 
    1870    1.1051194   -1314.9183    40.664143    21820.062    3.1885758    27.943791 
    1880    1.1027982   -1314.9514    40.141204    21820.062    3.1885758    27.943791 
    1890    1.1004269   -1314.9841    39.622857    21820.062    3.1885758    27.943791 
    1900    1.0980013   -1315.0164    39.109388    21820.062    3.1885758    27.943791 
    1910    1.0955151   -1315.0483    38.601135    21820.062    3.1885758    27.943791 
    1920    1.0929607   -1315.0798    38.098485    21820.062    3.1885758    27.943791 
    1930    1.0903288   -1315.1108    37.601873    21820.062    3.1885758    27.943791 
    1940    1.0876088   -1315.1413    37.111783    21820.062    3.1885758    27.943791 
    1950    1.0847892   -1315.1712    36.628749    21820.062    3.1885758    27.943791 
    1960    1.0818576   -1315.2007    36.153347    21820.062    3.1885758    27.943791 
    1970    1.0788009   -1315.2295    35.686197    21820.062    3.1885758    27.943791 
    1980    1.0756058   -1315.2577    35.227959    21820.062    3.1885758    27.943791 
    1990    1.0722588   -1315.2853    34.779325    21820.062    3.1885758    27.943791 
    2000     1.068747   -1315.3121    34.341019    21820.062    3.1885758    27.943791 
    2010    1.0650575   -1315.3382    33.913788    21820.062    3.1885758    27.943791 
    2020    1.0611788   -1315.3634    33.498398    21820.062    3.1885758    27.943791 
    2030    1.0571004   -1315.3878    33.095626    21820.062    3.1885758    27.943791 
    2040     1.052813   -1315.4113    32.706253    21820.062    3.1885758    27.943791 
    2050    1.0483097   -1315.4339    32.331059    21820.062    3.1885758    27.943791 
    2060    1.0435852   -1315.4555     31.97081    21820.062    3.1885758    27.943791 
    2070    1.0386371   -1315.4761    31.626258    21820.062    3.1885758    27.943791 
    2080    1.0334655   -1315.4956    31.298127    21820.062    3.1885758    27.943791 
    2090    1.0280737    -1315.514    30.987107    21820.062    3.1885758    27.943791 
    2100    1.0224683   -1315.5312    30.693851    21820.062    3.1885758    27.943791 
    2110    1.0166595   -1315.5473    30.418963    21820.062    3.1885758    27.943791 
    2120    1.0106616   -1315.5622    30.162996    21820.062    3.1885758    27.943791 
    2130    1.0044928   -1315.5758    29.926443    21820.062    3.1885758    27.943791 
    2140   0.99817585   -1315.5882    29.709739    21820.062    3.1885758    27.943791 
    2150     0.991738   -1315.5994    29.513251    21820.062    3.1885758    27.943791 
    2160   0.98521134   -1315.6092    29.337283    21820.062    3.1885758    27.943791 
    2170   0.97863297   -1315.6178    29.182067    21820.062    3.1885758    27.943791 
    2180   0.97204514    -1315.625    29.047774    21820.062    3.1885758    27.943791 
    2190   0.96549543    -1315.631    28.934507    21820.062    3.1885758    27.943791 
    2200   0.95903689   -1315.6357    28.842309    21820.062    3.1885758    27.943791 
    2210   0.95272808   -1315.6391    28.771169    21820.062    3.1885758    27.943791 
    2220   0.94663307   -1315.6413    28.721025    21820.062    3.1885758    27.943791 
    2230   0.94082129   -1315.6422     28.69177    21820.062    3.1885758    27.943791 
    2240    0.9353671   -1315.6419    28.683263    21820.062    3.1885758    27.943791 
    2250   0.93034911   -1315.6404    28.695335    21820.062    3.1885758    27.943791 
    2260   0.92584888   -1315.6377    28.727794    21820.062    3.1885758    27.943791 
    2270   0.92194893   -1315.6339    28.780433    21820.062    3.1885758    27.943791 
    2280   0.91872971    -1315.629    28.853028    21820.062    3.1885758    27.943791 
    2290   0.91626537   -1315.6229    28.945343    21820.062    3.1885758    27.943791 
    2300   0.91461811   -1315.6158    29.057114    21820.062    3.1885758    27.943791 
    2310   0.91383119   -1315.6076    29.188046    21820.062    3.1885758    27.943791 
    2320   0.91392125   -1315.5984    29.337787    21820.062    3.1885758    27.943791 
    2330   0.91487083   -1315.5881    29.505916    21820.062    3.1885758    27.943791 
    2340   0.91662301   -1315.5769    29.691923    21820.062    3.1885758    27.943791 
    2350    0.9190798   -1315.5647    29.895201    21820.062    3.1885758    27.943791 
    2360   0.92210591   -1315.5515    30.115051    21820.062    3.1885758    27.943791 
    2370   0.92553792   -1315.5374    30.350705    21820.062    3.1885758    27.943791 
    2380   0.92919748   -1315.5223    30.601351    21820.062    3.1885758    27.943791 
    2390   0.93290587   -1315.5062    30.866172    21820.062    3.1885758    27.943791 
    2400   0.93649698   -1315.4893     31.14438    21820.062    3.1885758    27.943791 
    2410   0.93982662   -1315.4714    31.435238    21820.062    3.1885758    27.943791 
    2420   0.94277764   -1315.4527     31.73807    21820.062    3.1885758    27.943791 
    2430   0.94526114    -1315.433    32.052269    21820.062    3.1885758    27.943791 
    2440   0.94721514   -1315.4126    32.377287    21820.062    3.1885758    27.943791 
    2450    0.9486016   -1315.3913    32.712634    21820.062    3.1885758    27.943791 
    2460   0.94940301   -1315.3692    33.057866    21820.062    3.1885758    27.943791 
    2470   0.94961877   -1315.3463    33.412579    21820.062    3.1885758    27.943791 
    2480   0.94926199   -1315.3226    33.776402    21820.062    3.1885758    27.943791 
    2490    0.9483565   -1315.2982    34.148992    21820.062    3.1885758    27.943791 
    2500    0.9469343   -1315.2732    34.530029    21820.062    3.1885758    27.943791 
    2510   0.94503326   -1315.2474    34.919214    21820.062    3.1885758    27.943791 
    2520   0.94269514    -1315.221    35.316265    21820.062    3.1885758    27.943791 
    2530   0.93996376    -1315.194    35.720918    21820.062    3.1885758    27.943791 
    2540   0.93688348   -1315.1664    36.132921    21820.062    3.1885758    27.943791 
    2550   0.93349779   -1315.1382    36.552033    21820.062    3.1885758    27.943791 
    2560   0.92984819   -1315.1095    36.978026    21820.062    3.1885758    27.943791 
    2570   0.92597328   -1315.0802    37.410679    21820.062    3.1885758    27.943791 
    2580   0.92190802   -1315.0505    37.849781    21820.062    3.1885758    27.943791 
    2590   0.91768333   -1315.0203    38.295127    21820.062    3.1885758    27.943791 
    2600   0.91332582   -1314.9896    38.746518    21820.062    3.1885758    27.943791 
    2610   0.90885787   -1314.9585    39.203764    21820.062    3.1885758    27.943791 
    2620    0.9042978    -1314.927    39.666676    21820.062    3.1885758    27.943791 
    2630   0.89966023   -1314.8951    40.135074    21820.062    3.1885758    27.943791 
    2640   0.89495664   -1314.8629    40.608782    21820.062    3.1885758    27.943791 
    2650   0.89019585   -1314.8302    41.087625    21820.062    3.1885758    27.943791 
    2660   0.88538472   -1314.7972    41.571437    21820.062    3.1885758    27.943791 
    2670   0.88052866   -1314.7639     42.06005    21820.062    3.1885758    27.943791 
    2680   0.87563222   -1314.7303    42.553299    21820.062    3.1885758    27.943791 
    2690   0.87069956   -1314.6964    43.051017    21820.062    3.1885758    27.943791 
    2700   0.86573489   -1314.6622    43.553035    21820.062    3.1885758    27.943791 
    2710   0.86074284   -1314.6277    44.059178    21820.062    3.1885758    27.943791 
    2720   0.85572868    -1314.593    44.569261    21820.062    3.1885758    27.943791 
    2730   0.85069864    -1314.558    45.083089    21820.062    3.1885758    27.943791 
    2740   0.84566004   -1314.5229    45.600453    21820.062    3.1885758    27.943791 
    2750   0.84062148   -1314.4875    46.121123    21820.062    3.1885758    27.943791 
    2760   0.83559296    -1314.452     46.64485    21820.062    3.1885758    27.943791 
    2770   0.83058604   -1314.4163    47.171361    21820.062    3.1885758    27.943791 
    2780   0.82561387   -1314.3805    47.700354    21820.062    3.1885758    27.943791 
    2790   0.82069136   -1314.3446    48.231499    21820.062    3.1885758    27.943791 
    2800   0.81583522   -1314.3087    48.764436    21820.062    3.1885758    27.943791 
    2810     0.811064   -1314.2727    49.298768    21820.062    3.1885758    27.943791 
    2820    0.8063982   -1314.2367    49.834067    21820.062    3.1885758    27.943791 
    2830   0.80186025   -1314.2007     50.36987    21820.062    3.1885758    27.943791 
    2840   0.79747451   -1314.1648    50.905679    21820.062    3.1885758    27.943791 
    2850   0.79326729    -1314.129    51.440963    21820.062    3.1885758    27.943791 
    2860   0.78926671   -1314.0934    51.975159    21820.062    3.1885758    27.943791 
    2870   0.78550269    -1314.058    52.507674    21820.062    3.1885758    27.943791 
    2880   0.78200678   -1314.0228     53.03789    21820.062    3.1885758    27.943791 
    2890   0.77881201   -1313.9879    53.565163    21820.062    3.1885758    27.943791 
    2900   0.77595267   -1313.9534    54.088833    21820.062    3.1885758    27.943791 
    2910   0.77346407   -1313.9193    54.608226    21820.062    3.1885758    27.943791 
    2920   0.77138231   -1313.8857    55.122659    21820.062    3.1885758    27.943791 
    2930   0.76975068    -1313.828     55.78293    21820.062    3.1885758    27.943791 
    2940   0.76861806   -1313.7955    56.285262    21820.062    3.1885758    27.943791 
    2950   0.76799909   -1313.7636    56.780639    21820.062    3.1885758    27.943791 
    2960   0.76792896   -1313.7324    57.268408    21820.062    3.1885758    27.943791 
    2970   0.76844183   -1313.7019    57.747939    21820.062    3.1885758    27.943791 
    2980   0.76957279   -1313.6476    58.370129    21820.062    3.1885758    27.943791 
    2990   0.77136799   -1313.5942     58.98283    21820.062    3.1885758    27.943791 
    3000   0.77386761   -1313.5662    59.433959    21820.062    3.1885758    27.943791 
    3010   0.77706365   -1313.5146    60.026256    21820.062    3.1885758    27.943791 
    3020   0.78099342   -1313.4884    60.456194    21820.062    3.1885758    27.943791 
    3030    0.7856503   -1313.4633    60.875042    21820.062    3.1885758    27.943791 
    3040   0.79104679   -1313.4391    61.282454    21820.062    3.1885758    27.943791 
    3050   0.79719112   -1313.4159    61.678129    21820.062    3.1885758    27.943791 
    3060   0.80408681   -1313.3937    62.061802    21820.062    3.1885758    27.943791 
    3070   0.81173244   -1313.3725    62.433242    21820.062    3.1885758    27.943791 
    3080   0.82012145   -1313.3524    62.792244    21820.062    3.1885758    27.943791 
    3090   0.82924196   -1313.3334    63.138623    21820.062    3.1885758    27.943791 
    3100   0.83907673   -1313.3154    63.472199    21820.062    3.1885758    27.943791 
    3110   0.84960308   -1313.2985    63.792794    21820.062    3.1885758    27.943791 
    3120    0.8607929   -1313.2827    64.100212    21820.062    3.1885758    27.943791 
    3130   0.87261268   -1313.2679    64.394234    21820.062    3.1885758    27.943791 
    3140    0.8850235   -1313.2542      64.6746    21820.062    3.1885758    27.943791 
    3150   0.89799363   -1313.2417    64.940916    21820.062    3.1885758    27.943791 
    3160   0.91148199   -1313.2302     65.19276    21820.062    3.1885758    27.943791 
    3170   0.92541241   -1313.2198    65.429809    21820.062    3.1885758    27.943791 
    3180   0.93972318   -1313.2105    65.651524    21820.062    3.1885758    27.943791 
    3190   0.95434659   -1313.2024     65.85727    21820.062    3.1885758    27.943791 
    3200   0.96922682   -1313.1708    66.197722    21820.062    3.1885758    27.943791 
    3210   0.98427021    -1313.165    66.369109    21820.062    3.1885758    27.943791 
    3220   0.99938143   -1313.1358    66.673541    21820.062    3.1885758    27.943791 
    3230    1.0144702   -1313.1324    66.806849    21820.062    3.1885758    27.943791 
    3240    1.0294103   -1313.1303    66.919469    21820.062    3.1885758    27.943791 
    3250    1.0441041   -1313.1049    67.161493    21820.062    3.1885758    27.943791 
    3260    1.0584147   -1313.0808    67.379976    21820.062    3.1885758    27.943791 
    3270    1.0721866   -1313.0827    67.421988    21820.062    3.1885758    27.943791 
    3280    1.0852315   -1313.1106    67.286047    21820.062    3.1885758    27.943791 
    3290    1.0973978   -1313.1155    67.273313    21820.062    3.1885758    27.943791 
    3300    1.1084703   -1313.1464    67.079103    21820.062    3.1885758    27.943791 
    3310    1.1182435   -1313.1544    67.004681    21820.062    3.1885758    27.943791 
    3320    1.1265127   -1313.1885    66.745259    21820.062    3.1885758    27.943791 
    3330    1.1330921   -1313.1998    66.602193    21820.062    3.1885758    27.943791 
    3340    1.1377975   -1313.2129    66.422682    21820.062    3.1885758    27.943791 
    3350    1.1405301   -1313.2277    66.205654    21820.062    3.1885758    27.943791 
    3360    1.1412908   -1313.2443     65.95049    21820.062    3.1885758    27.943791 
    3370    1.1402115   -1313.2628    65.657145    21820.062    3.1885758    27.943791 
    3380    1.1375682   -1313.2831    65.326199    21820.062    3.1885758    27.943791 
    3390    1.1337648   -1313.3052    64.958821    21820.062    3.1885758    27.943791 
    3400     1.129284   -1313.3292     64.55663    21820.062    3.1885758    27.943791 
    3410    1.1246185    -1313.355    64.121498    21820.062    3.1885758    27.943791 
    3420    1.1202062   -1313.3826     63.65536    21820.062    3.1885758    27.943791 
    3430     1.116429   -1313.4366    63.008302    21820.062    3.1885758    27.943791 
    3440    1.1134789   -1313.4677    62.485378    21820.062    3.1885758    27.943791 
    3450    1.1115055   -1313.5497    61.633597    21820.062    3.1885758    27.943791 
    3460     1.110524   -1313.5842    61.060847    21820.062    3.1885758    27.943791 
    3470    1.1104815   -1313.6201    60.466077    21820.062    3.1885758    27.943791 
    3480    1.1112927   -1313.6573     59.85131    21820.062    3.1885758    27.943791 
    3490    1.1128398   -1313.6957    59.218718    21820.062    3.1885758    27.943791 
    3500    1.1149842   -1313.7351    58.570638    21820.062    3.1885758    27.943791 
    3510    1.1176114      -1313.8    57.757795    21820.062    3.1885758    27.943791 
    3520    1.1205412   -1313.8411    57.085972    21820.062    3.1885758    27.943791 
    3530     1.123614   -1313.9073    56.254894    21820.062    3.1885758    27.943791 
    3540    1.1267081   -1313.9493    55.570228    21820.062    3.1885758    27.943791 
    3550    1.1296553   -1313.9914    54.883477    21820.062    3.1885758    27.943791 
    3560    1.1323262   -1314.0335    54.197527    21820.062    3.1885758    27.943791 
    3570    1.1346046   -1314.0754    53.515241    21820.062    3.1885758    27.943791 
    3580    1.1363893   -1314.1169    52.839416    21820.062    3.1885758    27.943791 
    3590    1.1375942   -1314.1579    52.172752    21820.062    3.1885758    27.943791 
    3600    1.1381488   -1314.1981    51.517818    21820.062    3.1885758    27.943791 
    3610    1.1379976   -1314.2374    50.877021    21820.062    3.1885758    27.943791 
    3620    1.1371003   -1314.2757    50.252578    21820.062    3.1885758    27.943791 
    3630    1.1354306   -1314.3129    49.646498    21820.062    3.1885758    27.943791 
    3640    1.1329759   -1314.3488    49.060562    21820.062    3.1885758    27.943791 
    3650    1.1297368   -1314.3833    48.496311    21820.062    3.1885758    27.943791 
    3660    1.1257256   -1314.4165    47.955032    21820.062    3.1885758    27.943791 
    3670    1.1209664   -1314.4481    47.437763    21820.062    3.1885758    27.943791 
    3680    1.1154935   -1314.4783    46.945283    21820.062    3.1885758    27.943791 
    3690    1.1093509   -1314.5068    46.478118    21820.062    3.1885758    27.943791 
    3700    1.1025912   -1314.5338     46.03655    21820.062    3.1885758    27.943791 
    3710    1.0952749   -1314.5593    45.620622    21820.062    3.1885758    27.943791 
    3720    1.0874689   -1314.5832    45.230153    21820.062    3.1885758    27.943791 
    3730    1.0792462   -1314.6055     44.86475    21820.062    3.1885758    27.943791 
    3740    1.0706843   -1314.6264    44.523826    21820.062    3.1885758    27.943791 
    3750    1.0618646   -1314.6459    44.206617    21820.062    3.1885758    27.943791 
    3760    1.0528711    -1314.664    43.912202    21820.062    3.1885758    27.943791 
    3770    1.0437901   -1314.6809    43.639522    21820.062    3.1885758    27.943791 
    3780    1.0347088   -1314.6965      43.3874    21820.062    3.1885758    27.943791 
    3790    1.0257145    -1314.711    43.154565    21820.062    3.1885758    27.943791 
    3800    1.0168942   -1314.7244    42.939669    21820.062    3.1885758    27.943791 
    3810    1.0083335   -1314.7369    42.741312    21820.062    3.1885758    27.943791 
    3820    1.0001163   -1314.7486    42.558056    21820.062    3.1885758    27.943791 
    3830   0.99232394   -1314.7595    42.388452    21820.062    3.1885758    27.943791 
    3840   0.98503449   -1314.7698    42.231051    21820.062    3.1885758    27.943791 
    3850   0.97832244   -1314.7795    42.084424    21820.062    3.1885758    27.943791 
    3860   0.97225796   -1314.7888    41.947181    21820.062    3.1885758    27.943791 
    3870   0.96690629   -1314.7976    41.817979    21820.062    3.1885758    27.943791 
    3880   0.96232704   -1314.8062    41.695538    21820.062    3.1885758    27.943791 
    3890   0.95857351   -1314.8145    41.578652    21820.062    3.1885758    27.943791 
    3900   0.95569173   -1314.8227    41.466194    21820.062    3.1885758    27.943791 
    3910   0.95371953   -1314.8308    41.357129    21820.062    3.1885758    27.943791 
    3920   0.95268538   -1314.8389    41.250512    21820.062    3.1885758    27.943791 
    3930   0.95260709   -1314.8471    41.145494    21820.062    3.1885758    27.943791 
    3940    0.9534904   -1314.8553    41.041321    21820.062    3.1885758    27.943791 
    3950   0.95532747   -1314.8636    40.937334    21820.062    3.1885758    27.943791 
    3960   0.95809536    -1314.872    40.832964    21820.062    3.1885758    27.943791 
    3970   0.96175461   -1314.8806    40.727728    21820.062    3.1885758    27.943791 
    3980   0.96624803   -1314.8894    40.621223    21820.062    3.1885758    27.943791 
    3990   0.97149996   -1314.8984    40.513119    21820.062    3.1885758    27.943791 
    4000   0.97741594   -1314.9075    40.403156    21820.062    3.1885758    27.943791 
    4010   0.98388319   -1314.9168    40.291134    21820.062    3.1885758    27.943791 
    4020   0.99077168   -1314.9263    40.176908    21820.062    3.1885758    27.943791 
    4030   0.99793613   -1314.9359    40.060384    21820.062    3.1885758    27.943791 
    4040    1.0052186   -1314.9455    39.941517    21820.062    3.1885758    27.943791 
    4050    1.0124518   -1314.9553    39.820301    21820.062    3.1885758    27.943791 
    4060    1.0194631    -1314.965     39.69677    21820.062    3.1885758    27.943791 
    4070    1.0260787   -1314.9748    39.570997    21820.062    3.1885758    27.943791 
    4080    1.0321286   -1314.9846    39.443087    21820.062    3.1885758    27.943791 
    4090    1.0374519   -1314.9942    39.313179    21820.062    3.1885758    27.943791 
    4100     1.041902   -1315.0037    39.181448    21820.062    3.1885758    27.943791 
    4110    1.0453527   -1315.0131    39.048104    21820.062    3.1885758    27.943791 
    4120     1.047704   -1315.0223    38.913398    21820.062    3.1885758    27.943791 
    4130    1.0488873   -1315.0313    38.777628    21820.062    3.1885758    27.943791 
    4140    1.0488706     -1315.04    38.641143    21820.062    3.1885758    27.943791 
    4150    1.0476609   -1315.0484    38.504343    21820.062    3.1885758    27.943791 
    4160    1.0453057   -1315.0566    38.367684    21820.062    3.1885758    27.943791 
    4170    1.0418904   -1315.0645     38.23167    21820.062    3.1885758    27.943791 
    4180    1.0375338    -1315.072     38.09684    21820.062    3.1885758    27.943791 
    4190      1.03238   -1315.0793    37.963753    21820.062    3.1885758    27.943791 
    4200    1.0265898   -1315.0862    37.832971    21820.062    3.1885758    27.943791 
    4210    1.0203303   -1315.0929    37.705038    21820.062    3.1885758    27.943791 
    4220    1.0137666   -1315.0992    37.580464    21820.062    3.1885758    27.943791 
    4230    1.0070545   -1315.1052    37.459722    21820.062    3.1885758    27.943791 
    4240     1.000336   -1315.1109    37.343239    21820.062    3.1885758    27.943791 
    4250   0.99373634   -1315.1164    37.231403    21820.062    3.1885758    27.943791 
    4260   0.98736383   -1315.1215    37.124569    21820.062    3.1885758    27.943791 
    4270   0.98131008   -1315.1263    37.023069    21820.062    3.1885758    27.943791 
    4280   0.97565164   -1315.1308     36.92722    21820.062    3.1885758    27.943791 
    4290   0.97045179   -1315.1351    36.837338    21820.062    3.1885758    27.943791 
    4300   0.96576244    -1315.139    36.753741    21820.062    3.1885758    27.943791 
    4310   0.96162585   -1315.1426     36.67676    21820.062    3.1885758    27.943791 
    4320   0.95807611   -1315.1459    36.606736    21820.062    3.1885758    27.943791 
    4330   0.95514027   -1315.1488    36.544028    21820.062    3.1885758    27.943791 
    4340   0.95283911   -1315.1514    36.489008    21820.062    3.1885758    27.943791 
    4350   0.95118752   -1315.1536     36.44206    21820.062    3.1885758    27.943791 
    4360   0.95019449   -1315.1554    36.403576    21820.062    3.1885758    27.943791 
    4370   0.94986265   -1315.1568    36.373945    21820.062    3.1885758    27.943791 
    4380   0.95018751   -1315.1578    36.353548    21820.062    3.1885758    27.943791 
    4390   0.95115635   -1315.1583    36.342748    21820.062    3.1885758    27.943791 
    4400   0.95274689   -1315.1584     36.34188    21820.062    3.1885758    27.943791 
    4410   0.95492596    -1315.158    36.351233    21820.062    3.1885758    27.943791 
    4420    0.9576483    -1315.157    36.371047    21820.062    3.1885758    27.943791 
    4430    0.9608559   -1315.1555    36.401496    21820.062    3.1885758    27.943791 
    4440   0.96447794   -1315.1535    36.442683    21820.062    3.1885758    27.943791 
    4450   0.96843178   -1315.1509    36.494629    21820.062    3.1885758    27.943791 
    4460   0.97262487   -1315.1477    36.557274    21820.062    3.1885758    27.943791 
    4470   0.97695771    -1315.144    36.630475    21820.062    3.1885758    27.943791 
    4480   0.98132754   -1315.1396    36.714006    21820.062    3.1885758    27.943791 
    4490   0.98563233   -1315.1347    36.807568    21820.062    3.1885758    27.943791 
    4500   0.98977487   -1315.1292    36.910788    21820.062    3.1885758    27.943791 
    4510   0.99366634   -1315.1231    37.023232    21820.062    3.1885758    27.943791 
    4520   0.99722931   -1315.1165    37.144405    21820.062    3.1885758    27.943791 
    4530    1.0003998   -1315.1093    37.273763    21820.062    3.1885758    27.943791 
    4540    1.0031287   -1315.1016    37.410713    21820.062    3.1885758    27.943791 
    4550     1.005382   -1315.0934    37.554625    21820.062    3.1885758    27.943791 
    4560    1.0071411   -1315.0848    37.704835    21820.062    3.1885758    27.943791 
    4570    1.0084019   -1315.0758    37.860649    21820.062    3.1885758    27.943791 
    4580    1.0091737   -1315.0663    38.021357    21820.062    3.1885758    27.943791 
    4590    1.0094784   -1315.0566    38.186235    21820.062    3.1885758    27.943791 
    4600    1.0093482   -1315.0466    38.354559    21820.062    3.1885758    27.943791 
    4610    1.0088252   -1315.0364    38.525608    21820.062    3.1885758    27.943791 
    4620    1.0079583   -1315.0259    38.698677    21820.062    3.1885758    27.943791 
    4630    1.0068027   -1315.0154    38.873087    21820.062    3.1885758    27.943791 
    4640    1.0054172   -1315.0047    39.048189    21820.062    3.1885758    27.943791 
    4650    1.0038631    -1314.994    39.223378    21820.062    3.1885758    27.943791 
    4660    1.0022017   -1314.9833    39.398096    21820.062    3.1885758    27.943791 
    4670    1.0004935   -1314.9726     39.57184    21820.062    3.1885758    27.943791 
    4680   0.99879584    -1314.962     39.74417    21820.062    3.1885758    27.943791 
    4690   0.99716181   -1314.9514     39.91471    21820.062    3.1885758    27.943791 
    4700   0.99563879    -1314.941    40.083155    21820.062    3.1885758    27.943791 
    4710   0.99426731   -1314.9307     40.24927    21820.062    3.1885758    27.943791 
    4720   0.99308006   -1314.9205    40.412897    21820.062    3.1885758    27.943791 
    4730   0.99210112   -1314.9104    40.573952    21820.062    3.1885758    27.943791 
    4740   0.99134548   -1314.9005    40.732424    21820.062    3.1885758    27.943791 
    4750   0.99081875   -1314.8907    40.888378    21820.062    3.1885758    27.943791 
    4760   0.99051719    -1314.881    41.041949    21820.062    3.1885758    27.943791 
    4770   0.99042795   -1314.8714    41.193344    21820.062    3.1885758    27.943791 
    4780   0.99052968   -1314.8619    41.342836    21820.062    3.1885758    27.943791 
    4790   0.99079329   -1314.8524    41.490761    21820.062    3.1885758    27.943791 
    4800   0.99118304   -1314.8429    41.637514    21820.062    3.1885758    27.943791 
    4810   0.99165776   -1314.8334    41.783548    21820.062    3.1885758    27.943791 
    4820   0.99217228   -1314.8238    41.929364    21820.062    3.1885758    27.943791 
    4830   0.99267889    -1314.814    42.075508    21820.062    3.1885758    27.943791 
    4840   0.99312894   -1314.8041    42.222567    21820.062    3.1885758    27.943791 
    4850   0.99347432   -1314.7939    42.371158    21820.062    3.1885758    27.943791 
    4860   0.99366892   -1314.7835    42.521926    21820.062    3.1885758    27.943791 
    4870   0.99367003   -1314.7727    42.675535    21820.062    3.1885758    27.943791 
    4880   0.99343944   -1314.7616     42.83266    21820.062    3.1885758    27.943791 
    4890   0.99294454   -1314.7501    42.993982    21820.062    3.1885758    27.943791 
    4900     0.992159   -1314.7381    43.160177    21820.062    3.1885758    27.943791 
    4910   0.99106343   -1314.7255    43.331912    21820.062    3.1885758    27.943791 
    4920   0.98964558   -1314.7125    43.509837    21820.062    3.1885758    27.943791 
    4930   0.98790045   -1314.6988    43.694578    21820.062    3.1885758    27.943791 
    4940   0.98583001   -1314.6845    43.886729    21820.062    3.1885758    27.943791 
    4950   0.98344271   -1314.6696     44.08685    21820.062    3.1885758    27.943791 
    4960   0.98075268    -1314.654    44.295459    21820.062    3.1885758    27.943791 
    4970   0.97777872   -1314.6377    44.513026    21820.062    3.1885758    27.943791 
    4980   0.97454303   -1314.6208     44.73997    21820.062    3.1885758    27.943791 
    4990   0.97106972    -1314.603    44.976652    21820.062    3.1885758    27.943791 
    5000    0.9673833   -1314.5846    45.223373    21820.062    3.1885758    27.943791 
    5010   0.96350705   -1314.5655    45.480368    21820.062    3.1885758    27.943791 
    5020   0.95946158   -1314.5456    45.747805    21820.062    3.1885758    27.943791 
    5030   0.95526354    -1314.525    46.025776    21820.062    3.1885758    27.943791 
    5040   0.95092488   -1314.5036    46.314303    21820.062    3.1885758    27.943791 
    5050   0.94645251   -1314.4816    46.613329    21820.062    3.1885758    27.943791 
    5060   0.94184876   -1314.4589    46.922724    21820.062    3.1885758    27.943791 
    5070   0.93711246   -1314.4356    47.242286    21820.062    3.1885758    27.943791 
    5080   0.93224056   -1314.4116    47.571744    21820.062    3.1885758    27.943791 
    5090   0.92723032   -1314.3871    47.910762    21820.062    3.1885758    27.943791 
    5100   0.92208145   -1314.3619    48.258948    21820.062    3.1885758    27.943791 
    5110   0.91679822   -1314.3363    48.615855    21820.062    3.1885758    27.943791 
    5120   0.91139103   -1314.3101    48.980988    21820.062    3.1885758    27.943791 
    5130   0.90587739   -1314.2836    49.353806    21820.062    3.1885758    27.943791 
    5140   0.90028217   -1314.2566    49.733722    21820.062    3.1885758    27.943791 
    5150   0.89463727   -1314.2294    50.120105    21820.062    3.1885758    27.943791 
    5160   0.88898076   -1314.2018    50.512277    21820.062    3.1885758    27.943791 
    5170   0.88335577   -1314.1741    50.909511    21820.062    3.1885758    27.943791 
    5180   0.87780936   -1314.1462    51.311032    21820.062    3.1885758    27.943791 
    5190   0.87239143   -1314.1183    51.716009    21820.062    3.1885758    27.943791 
    5200   0.86715388   -1314.0904    52.123562    21820.062    3.1885758    27.943791 
    5210   0.86215001   -1314.0626    52.532757    21820.062    3.1885758    27.943791 
    5220   0.85744069   -1314.0103    53.094099    21820.062    3.1885758    27.943791 
    5230   0.85307986   -1313.9829    53.503538    21820.062    3.1885758    27.943791 
    5240   0.84911392   -1313.9559    53.911577    21820.062    3.1885758    27.943791 
    5250   0.84559885   -1313.9292    54.317097    21820.062    3.1885758    27.943791 
    5260   0.84259095    -1313.903     54.71894    21820.062    3.1885758    27.943791 
    5270   0.84014659   -1313.8774    55.115916    21820.062    3.1885758    27.943791 
    5280   0.83832177   -1313.8525    55.506811    21820.062    3.1885758    27.943791 
    5290    0.8371717   -1313.8283    55.890388    21820.062    3.1885758    27.943791 
    5300   0.83675026    -1313.805    56.265397    21820.062    3.1885758    27.943791 
    5310   0.83710942   -1313.7826    56.630584    21820.062    3.1885758    27.943791 
    5320    0.8383437   -1313.7122    57.287492    21820.062    3.1885758    27.943791 
    5330   0.84047605   -1313.6921    57.628976    21820.062    3.1885758    27.943791 
    5340   0.84353043   -1313.6486    58.108481    21820.062    3.1885758    27.943791 
    5350   0.84756132   -1313.6309    58.421731    21820.062    3.1885758    27.943791 
    5360   0.85256935   -1313.6145     58.71928    21820.062    3.1885758    27.943791 
    5370   0.85857853   -1313.5996    59.000043    21820.062    3.1885758    27.943791 
    5380   0.86560564    -1313.586    59.262989    21820.062    3.1885758    27.943791 
    5390    0.8736591    -1313.574    59.507152    21820.062    3.1885758    27.943791 
    5400   0.88274572   -1313.5389    59.883103    21820.062    3.1885758    27.943791 
    5410   0.89286082   -1313.5301     60.08697    21820.062    3.1885758    27.943791 
    5420   0.90400258   -1313.4983    60.420962    21820.062    3.1885758    27.943791 
    5430   0.91609277   -1313.4927    60.581614    21820.062    3.1885758    27.943791 
    5440   0.92908021   -1313.4396    61.022919    21820.062    3.1885758    27.943791 
    5450   0.94295401   -1313.4374    61.138001    21820.062    3.1885758    27.943791 
    5460    0.9575617   -1313.4368    61.229936    21820.062    3.1885758    27.943791 
    5470    0.9728027   -1313.4378    61.298354    21820.062    3.1885758    27.943791 
    5480   0.98855852   -1313.4404    61.342932    21820.062    3.1885758    27.943791 
    5490    1.0046912   -1313.4446     61.36339    21820.062    3.1885758    27.943791 
    5500    1.0210417   -1313.4503    61.359469    21820.062    3.1885758    27.943791 
    5510    1.0374282   -1313.4575    61.330923    21820.062    3.1885758    27.943791 
    5520    1.0536439   -1313.4662    61.277496    21820.062    3.1885758    27.943791 
    5530     1.069455   -1313.4763    61.198909    21820.062    3.1885758    27.943791 
    5540    1.0845991   -1313.4878     61.09484    21820.062    3.1885758    27.943791 
    5550    1.0987844   -1313.5007    60.964908    21820.062    3.1885758    27.943791 
    5560    1.1116917   -1313.5148    60.808672    21820.062    3.1885758    27.943791 
    5570    1.1229822   -1313.5302    60.625643    21820.062    3.1885758    27.943791 
    5580    1.1323165   -1313.5713      60.2638    21820.062    3.1885758    27.943791 
    5590    1.1394075   -1313.5891    60.025645    21820.062    3.1885758    27.943791 
    5600    1.1440312   -1313.6326    59.608014    21820.062    3.1885758    27.943791 
    5610    1.1461316   -1313.6526    59.314282    21820.062    3.1885758    27.943791 
    5620    1.1458889   -1313.6737    58.994012    21820.062    3.1885758    27.943791 
    5630    1.1437562   -1313.6958    58.649041    21820.062    3.1885758    27.943791 
    5640    1.1404101   -1313.7435    58.130192    21820.062    3.1885758    27.943791 
    5650    1.1365906   -1313.7923    57.591442    21820.062    3.1885758    27.943791 
    5660    1.1328968   -1313.8174    57.186726    21820.062    3.1885758    27.943791 
    5670    1.1297349   -1313.8435    56.766319    21820.062    3.1885758    27.943791 
    5680    1.1272999   -1313.8705    56.331475    21820.062    3.1885758    27.943791 
    5690     1.125629   -1313.9229    55.731572    21820.062    3.1885758    27.943791 
    5700     1.124727   -1313.9762    55.118529    21820.062    3.1885758    27.943791 
    5710    1.1244178   -1314.0058     54.64512    21820.062    3.1885758    27.943791 
    5720    1.1245768    -1314.036    54.160927    21820.062    3.1885758    27.943791 
    5730    1.1250853   -1314.0667    53.667211    21820.062    3.1885758    27.943791 
    5740    1.1258637   -1314.1472    52.862167    21820.062    3.1885758    27.943791 
    5750     1.126857   -1314.1789    52.353132    21820.062    3.1885758    27.943791 
    5760    1.1279043    -1314.211    51.839096    21820.062    3.1885758    27.943791 
    5770    1.1289196   -1314.2432    51.321803    21820.062    3.1885758    27.943791 
    5780    1.1298241   -1314.2754    50.803037    21820.062    3.1885758    27.943791 
    5790    1.1305457   -1314.3076    50.284583    21820.062    3.1885758    27.943791 
    5800     1.131019   -1314.3395    49.768207    21820.062    3.1885758    27.943791 
    5810    1.1311859   -1314.3712    49.255627    21820.062    3.1885758    27.943791 
    5820    1.1309955   -1314.4025    48.748494    21820.062    3.1885758    27.943791 
    5830    1.1304052   -1314.4333    48.248371    21820.062    3.1885758    27.943791 
    5840    1.1293805   -1314.4635    47.756716    21820.062    3.1885758    27.943791 
    5850    1.1278952    -1314.493    47.274873    21820.062    3.1885758    27.943791 
    5860    1.1259315   -1314.5218    46.804059    21820.062    3.1885758    27.943791 
    5870    1.1234797   -1314.5497    46.345356    21820.062    3.1885758    27.943791 
    5880    1.1205382   -1314.5768    45.899712    21820.062    3.1885758    27.943791 
    5890    1.1171125    -1314.603    45.467932    21820.062    3.1885758    27.943791 
    5900    1.1132153   -1314.6283    45.050687    21820.062    3.1885758    27.943791 
    5910    1.1088652   -1314.6525    44.648513    21820.062    3.1885758    27.943791 
    5920    1.1040869   -1314.6758    44.261819    21820.062    3.1885758    27.943791 
    5930    1.0989095   -1314.6981    43.890892    21820.062    3.1885758    27.943791 
    5940    1.0933667   -1314.7193    43.535909    21820.062    3.1885758    27.943791 
    5950    1.0874953   -1314.7395    43.196944    21820.062    3.1885758    27.943791 
    5960    1.0813352   -1314.7588     42.87398    21820.062    3.1885758    27.943791 
    5970    1.0749281    -1314.777    42.566922    21820.062    3.1885758    27.943791 
    5980    1.0683172   -1314.7943    42.275602    21820.062    3.1885758    27.943791 
    5990    1.0615466   -1314.8106    41.999797    21820.062    3.1885758    27.943791 
    6000    1.0546606    -1314.826    41.739235    21820.062    3.1885758    27.943791 
    6010    1.0477036   -1314.8405    41.493606    21820.062    3.1885758    27.943791 
    6020    1.0407193   -1314.8542    41.262572    21820.062    3.1885758    27.943791 
    6030    1.0337508    -1314.867    41.045774    21820.062    3.1885758    27.943791 
    6040    1.0268399   -1314.8789     40.84284    21820.062    3.1885758    27.943791 
    6050    1.0200277   -1314.8902    40.653391    21820.062    3.1885758    27.943791 
    6060    1.0133535   -1314.9006    40.477046    21820.062    3.1885758    27.943791 
    6070    1.0068557   -1314.9104    40.313427    21820.062    3.1885758    27.943791 
    6080    1.0005712   -1314.9194    40.162163    21820.062    3.1885758    27.943791 
    6090   0.99453604   -1314.9278    40.022888    21820.062    3.1885758    27.943791 
    6100   0.98878483   -1314.9356    39.895247    21820.062    3.1885758    27.943791 
    6110    0.9833515   -1314.9428    39.778895    21820.062    3.1885758    27.943791 
    6120   0.97826918   -1314.9494    39.673496    21820.062    3.1885758    27.943791 
    6130   0.97357041   -1314.9555    39.578723    21820.062    3.1885758    27.943791 
    6140   0.96928732    -1314.961    39.494258    21820.062    3.1885758    27.943791 
    6150   0.96545167   -1314.9661    39.419785    21820.062    3.1885758    27.943791 
    6160   0.96209492   -1314.9707    39.354994    21820.062    3.1885758    27.943791 
    6170   0.95924812   -1314.9748    39.299578    21820.062    3.1885758    27.943791 
    6180   0.95694169   -1314.9785    39.253225    21820.062    3.1885758    27.943791 
    6190     0.955205   -1314.9818     39.21562    21820.062    3.1885758    27.943791 
    6200   0.95406573   -1314.9847    39.186439    21820.062    3.1885758    27.943791 
    6210   0.95354887   -1314.9872    39.165348    21820.062    3.1885758    27.943791 
    6220   0.95367552   -1314.9894    39.151993    21820.062    3.1885758    27.943791 
    6230   0.95446127   -1314.9913    39.146003    21820.062    3.1885758    27.943791 
    6240   0.95591429   -1314.9929    39.146977    21820.062    3.1885758    27.943791 
    6250   0.95803327   -1314.9942    39.154482    21820.062    3.1885758    27.943791 
    6260   0.96080523   -1314.9953     39.16805    21820.062    3.1885758    27.943791 
    6270   0.96420353   -1314.9961    39.187168    21820.062    3.1885758    27.943791 
    6280   0.96818637   -1314.9967    39.211278    21820.062    3.1885758    27.943791 
    6290   0.97269606   -1314.9971    39.239775    21820.062    3.1885758    27.943791 
    6300   0.97765928   -1314.9973    39.272014    21820.062    3.1885758    27.943791 
    6310    0.9829885   -1314.9973    39.307309    21820.062    3.1885758    27.943791 
    6320   0.98858452   -1314.9972     39.34495    21820.062    3.1885758    27.943791 
    6330   0.99433972    -1314.997    39.384212    21820.062    3.1885758    27.943791 
    6340    1.0001419   -1314.9966    39.424368    21820.062    3.1885758    27.943791 
    6350    1.0058778   -1314.9961     39.46471    21820.062    3.1885758    27.943791 
    6360    1.0114366   -1314.9956    39.504556    21820.062    3.1885758    27.943791 
    6370    1.0167123   -1314.9949    39.543269    21820.062    3.1885758    27.943791 
    6380    1.0216058   -1314.9942    39.580263    21820.062    3.1885758    27.943791 
    6390    1.0260257   -1314.9934    39.615013    21820.062    3.1885758    27.943791 
    6400    1.0298895   -1314.9925    39.647063    21820.062    3.1885758    27.943791 
    6410    1.0331238   -1314.9916    39.676031    21820.062    3.1885758    27.943791 
    6420    1.0356647   -1314.9906    39.701614    21820.062    3.1885758    27.943791 
    6430    1.0374583   -1314.9896    39.723593    21820.062    3.1885758    27.943791 
    6440    1.0384618   -1314.9885    39.741836    21820.062    3.1885758    27.943791 
    6450    1.0386443   -1314.9873    39.756303    21820.062    3.1885758    27.943791 
    6460    1.0379887   -1314.9861    39.767049    21820.062    3.1885758    27.943791 
    6470    1.0364927   -1314.9848    39.774226    21820.062    3.1885758    27.943791 
    6480     1.034171   -1314.9835    39.778087    21820.062    3.1885758    27.943791 
    6490    1.0310565    -1314.982    39.778984    21820.062    3.1885758    27.943791 
    6500     1.027201   -1314.9804    39.777365    21820.062    3.1885758    27.943791 
    6510    1.0226748   -1314.9787     39.77377    21820.062    3.1885758    27.943791 
    6520    1.0175656   -1314.9769    39.768817    21820.062    3.1885758    27.943791 
    6530    1.0119757   -1314.9749    39.763193    21820.062    3.1885758    27.943791 
    6540    1.0060185   -1314.9728    39.757638    21820.062    3.1885758    27.943791 
    6550   0.99981384   -1314.9705    39.752921    21820.062    3.1885758    27.943791 
    6560   0.99348353    -1314.968    39.749829    21820.062    3.1885758    27.943791 
    6570   0.98714738   -1314.9653    39.749145    21820.062    3.1885758    27.943791 
    6580   0.98091995   -1314.9623    39.751639    21820.062    3.1885758    27.943791 
    6590   0.97490854   -1314.9591    39.758058    21820.062    3.1885758    27.943791 
    6600    0.9692123   -1314.9557     39.76912    21820.062    3.1885758    27.943791 
    6610   0.96392242    -1314.952    39.785516    21820.062    3.1885758    27.943791 
    6620   0.95912285    -1314.948    39.807907    21820.062    3.1885758    27.943791 
    6630   0.95489124   -1314.9437     39.83693    21820.062    3.1885758    27.943791 
    6640   0.95129959   -1314.9391    39.873202    21820.062    3.1885758    27.943791 
    6650   0.94841426   -1314.9342    39.917314    21820.062    3.1885758    27.943791 
    6660   0.94629453    -1314.929    39.969836    21820.062    3.1885758    27.943791 
    6670   0.94498957   -1314.9234    40.031308    21820.062    3.1885758    27.943791 
    6680   0.94453321   -1314.9174    40.102221    21820.062    3.1885758    27.943791 
    6690    0.9449365    -1314.911    40.183001    21820.062    3.1885758    27.943791 
    6700   0.94617877   -1314.9042    40.273977    21820.062    3.1885758    27.943791 
    6710   0.94819854    -1314.897    40.375353    21820.062    3.1885758    27.943791 
    6720   0.95088736   -1314.8894    40.487176    21820.062    3.1885758    27.943791 
    6730   0.95408964   -1314.8813    40.609332    21820.062    3.1885758    27.943791 
    6740   0.95761125   -1314.8727    40.741551    21820.062    3.1885758    27.943791 
    6750   0.96123699   -1314.8637    40.883447    21820.062    3.1885758    27.943791 
    6760   0.96475358   -1314.8541    41.034574    21820.062    3.1885758    27.943791 
    6770   0.96797236    -1314.844    41.194471    21820.062    3.1885758    27.943791 
    6780   0.97074614   -1314.8335    41.362713    21820.062    3.1885758    27.943791 
    6790   0.97297688   -1314.8224    41.538918    21820.062    3.1885758    27.943791 
    6800   0.97461499   -1314.8109    41.722749    21820.062    3.1885758    27.943791 
    6810   0.97565258   -1314.7989    41.913888    21820.062    3.1885758    27.943791 
    6820   0.97611424   -1314.7864    42.112022    21820.062    3.1885758    27.943791 
    6830    0.9760477   -1314.7736    42.316813    21820.062    3.1885758    27.943791 
    6840   0.97551572   -1314.7603    42.527892    21820.062    3.1885758    27.943791 
    6850    0.9745897   -1314.7467    42.744841    21820.062    3.1885758    27.943791 
    6860   0.97334487   -1314.7328    42.967195    21820.062    3.1885758    27.943791 
    6870   0.97185666   -1314.7186    43.194442    21820.062    3.1885758    27.943791 
    6880     0.970198   -1314.7042     43.42602    21820.062    3.1885758    27.943791 
    6890   0.96843721   -1314.6895    43.661325    21820.062    3.1885758    27.943791 
    6900   0.96663645   -1314.6748    43.899713    21820.062    3.1885758    27.943791 
    6910   0.96485051   -1314.6599    44.140505    21820.062    3.1885758    27.943791 
    6920   0.96312611    -1314.645    44.382987    21820.062    3.1885758    27.943791 
    6930   0.96150155   -1314.6301    44.626421    21820.062    3.1885758    27.943791 
    6940     0.960007   -1314.6152    44.870046    21820.062    3.1885758    27.943791 
    6950   0.95866512   -1314.6003    45.113081    21820.062    3.1885758    27.943791 
    6960   0.95749227   -1314.5856     45.35474    21820.062    3.1885758    27.943791 
    6970   0.95649998   -1314.5711    45.594228    21820.062    3.1885758    27.943791 
    6980   0.95569665   -1314.5567    45.830757    21820.062    3.1885758    27.943791 
    6990   0.95508924   -1314.5426    46.063547    21820.062    3.1885758    27.943791 
    7000   0.95468473   -1314.5288    46.291839    21820.062    3.1885758    27.943791 
    7010   0.95449124   -1314.5153    46.514893    21820.062    3.1885758    27.943791 
    7020    0.9545187   -1314.5021    46.732001    21820.062    3.1885758    27.943791 
    7030   0.95477896   -1314.4894    46.942485    21820.062    3.1885758    27.943791 
    7040   0.95528551    -1314.477      47.1457    21820.062    3.1885758    27.943791 
    7050   0.95605282   -1314.4652    47.341039    21820.062    3.1885758    27.943791 
    7060   0.95709546   -1314.4538    47.527933    21820.062    3.1885758    27.943791 
    7070   0.95842713    -1314.443     47.70585    21820.062    3.1885758    27.943791 
    7080   0.96005963   -1314.4327    47.874301    21820.062    3.1885758    27.943791 
    7090   0.96200203    -1314.423    48.032838    21820.062    3.1885758    27.943791 
    7100   0.96425984   -1314.4139    48.181057    21820.062    3.1885758    27.943791 
    7110   0.96683447   -1314.4054    48.318603    21820.062    3.1885758    27.943791 
    7120   0.96972278   -1314.3975     48.44517    21820.062    3.1885758    27.943791 
    7130   0.97291674   -1314.3904    48.560505    21820.062    3.1885758    27.943791 
    7140   0.97640332   -1314.3839    48.664414    21820.062    3.1885758    27.943791 
    7150   0.98016436    -1314.378    48.756759    21820.062    3.1885758    27.943791 
    7160   0.98417658   -1314.3729    48.837465    21820.062    3.1885758    27.943791 
    7170   0.98841157   -1314.3684     48.90652    21820.062    3.1885758    27.943791 
    7180   0.99283588   -1314.3646    48.963975    21820.062    3.1885758    27.943791 
    7190   0.99741101   -1314.3615    49.009948    21820.062    3.1885758    27.943791 
    7200    1.0020936    -1314.359    49.044617    21820.062    3.1885758    27.943791 
    7210    1.0068354   -1314.3572    49.068222    21820.062    3.1885758    27.943791 
    7220    1.0115835    -1314.356     49.08106    21820.062    3.1885758    27.943791 
    7230    1.0162802   -1314.3554    49.083482    21820.062    3.1885758    27.943791 
    7240    1.0208635   -1314.3554    49.075884    21820.062    3.1885758    27.943791 
    7250    1.0252669   -1314.3559    49.058702    21820.062    3.1885758    27.943791 
    7260    1.0294197   -1314.3569    49.032407    21820.062    3.1885758    27.943791 
    7270     1.033247   -1314.3584    48.997489    21820.062    3.1885758    27.943791 
    7280    1.0366704   -1314.3603    48.954454    21820.062    3.1885758    27.943791 
    7290    1.0396074   -1314.3626     48.90381    21820.062    3.1885758    27.943791 
    7300     1.041973   -1314.3652    48.846058    21820.062    3.1885758    27.943791 
    7310      1.04368   -1314.3682    48.781686    21820.062    3.1885758    27.943791 
    7320    1.0446411   -1314.3715    48.711156    21820.062    3.1885758    27.943791 
    7330    1.0447719   -1314.3749    48.634912    21820.062    3.1885758    27.943791 
    7340    1.0439965   -1314.3786    48.553377    21820.062    3.1885758    27.943791 
    7350    1.0422554   -1314.3825    48.466975    21820.062    3.1885758    27.943791 
    7360    1.0395174   -1314.3865    48.376154    21820.062    3.1885758    27.943791 
    7370    1.0357941   -1314.3907    48.281432    21820.062    3.1885758    27.943791 
    7380    1.0311563   -1314.3949    48.183444    21820.062    3.1885758    27.943791 
    7390    1.0257462   -1314.3992    48.082986    21820.062    3.1885758    27.943791 
    7400    1.0197806   -1314.4036    47.981031    21820.062    3.1885758    27.943791 
    7410    1.0135375   -1314.4079     47.87871    21820.062    3.1885758    27.943791 
    7420    1.0073265   -1314.4124    47.777239    21820.062    3.1885758    27.943791 
    7430    1.0014476   -1314.4168     47.67782    21820.062    3.1885758    27.943791 
    7440   0.99615121   -1314.4212    47.581547    21820.062    3.1885758    27.943791 
    7450   0.99161112   -1314.4255    47.489343    21820.062    3.1885758    27.943791 
    7460    0.9879155   -1314.4298    47.401953    21820.062    3.1885758    27.943791 
    7470   0.98507472    -1314.434    47.319982    21820.062    3.1885758    27.943791 
    7480   0.98303862    -1314.438    47.243952    21820.062    3.1885758    27.943791 
    7490   0.98171651   -1314.4418    47.174354    21820.062    3.1885758    27.943791 
    7500   0.98099502   -1314.4454    47.111702    21820.062    3.1885758    27.943791 
    7510    0.9807516   -1314.4486    47.056553    21820.062    3.1885758    27.943791 
    7520   0.98086374   -1314.4515     47.00952    21820.062    3.1885758    27.943791 
    7530   0.98121459    -1314.454     46.97127    21820.062    3.1885758    27.943791 
    7540   0.98169616   -1314.4559    46.942513    21820.062    3.1885758    27.943791 
    7550   0.98221113   -1314.4573    46.923983    21820.062    3.1885758    27.943791 
    7560   0.98267376   -1314.4581    46.916419    21820.062    3.1885758    27.943791 
    7570   0.98301058   -1314.4581    46.920549    21820.062    3.1885758    27.943791 
    7580   0.98316085   -1314.4575    46.937063    21820.062    3.1885758    27.943791 
    7590   0.98307708    -1314.456    46.966602    21820.062    3.1885758    27.943791 
    7600   0.98272558   -1314.4538    47.009735    21820.062    3.1885758    27.943791 
    7610   0.98208685   -1314.4506    47.066949    21820.062    3.1885758    27.943791 
    7620   0.98115607   -1314.4466     47.13863    21820.062    3.1885758    27.943791 
    7630   0.97994335   -1314.4417    47.225059    21820.062    3.1885758    27.943791 
    7640   0.97847378   -1314.4359    47.326398    21820.062    3.1885758    27.943791 
    7650   0.97678727   -1314.4292    47.442687    21820.062    3.1885758    27.943791 
    7660   0.97493786   -1314.4216    47.573841    21820.062    3.1885758    27.943791 
    7670   0.97299241   -1314.4131    47.719643    21820.062    3.1885758    27.943791 
    7680    0.9710283   -1314.4038    47.879748    21820.062    3.1885758    27.943791 
    7690   0.96912947   -1314.3937    48.053671    21820.062    3.1885758    27.943791 
    7700   0.96738026   -1314.3829    48.240783    21820.062    3.1885758    27.943791 
    7710   0.96585599   -1314.3714     48.44029    21820.062    3.1885758    27.943791 
    7720   0.96460966   -1314.3593    48.651199    21820.062    3.1885758    27.943791 
    7730   0.96365505   -1314.3467    48.872278    21820.062    3.1885758    27.943791 
    7740   0.96294863   -1314.3336    49.101996    21820.062    3.1885758    27.943791 
    7750   0.96237573   -1314.3201     49.33848    21820.062    3.1885758    27.943791 
    7760   0.96175021   -1314.3063    49.579504    21820.062    3.1885758    27.943791 
    7770   0.96083703   -1314.2924    49.822546    21820.062    3.1885758    27.943791 
    7780   0.95940214   -1314.2784    50.064933    21820.062    3.1885758    27.943791 
    7790   0.95728163   -1314.2645    50.304061    21820.062    3.1885758    27.943791 
    7800   0.95444649   -1314.2507    50.537617    21820.062    3.1885758    27.943791 
    7810   0.95103128   -1314.2373    50.763712    21820.062    3.1885758    27.943791 
    7820   0.94730788   -1314.2244    50.980853    21820.062    3.1885758    27.943791 
    7830   0.94361987    -1314.212    51.187799    21820.062    3.1885758    27.943791 
    7840   0.94031643   -1314.2004    51.383414    21820.062    3.1885758    27.943791 
    7850   0.93771208   -1314.1897     51.56658    21820.062    3.1885758    27.943791 
    7860   0.93607122   -1314.1799    51.736194    21820.062    3.1885758    27.943791 
    7870   0.93560491   -1314.1712    51.891181    21820.062    3.1885758    27.943791 
    7880   0.93647013   -1314.1637    52.030517    21820.062    3.1885758    27.943791 
    7890   0.93876806   -1314.1574    52.153239    21820.062    3.1885758    27.943791 
    7900    0.9425417   -1314.1524    52.258451    21820.062    3.1885758    27.943791 
    7910   0.94777451   -1314.1488    52.345318    21820.062    3.1885758    27.943791 
    7920   0.95439259   -1314.1466    52.413078    21820.062    3.1885758    27.943791 
    7930    0.9622717   -1314.1459    52.461052    21820.062    3.1885758    27.943791 
    7940   0.97124929   -1314.1465    52.488677    21820.062    3.1885758    27.943791 
    7950    0.9811393   -1314.1486    52.495533    21820.062    3.1885758    27.943791 
    7960   0.99174639   -1314.1521     52.48137    21820.062    3.1885758    27.943791 
    7970    1.0028764   -1314.1569    52.446118    21820.062    3.1885758    27.943791 
    7980    1.0143416   -1314.1631    52.389877    21820.062    3.1885758    27.943791 
    7990      1.02596   -1314.1706     52.31289    21820.062    3.1885758    27.943791 
    8000    1.0375517   -1314.1794    52.215501    21820.062    3.1885758    27.943791 
    8010    1.0489331   -1314.1893    52.098109    21820.062    3.1885758    27.943791 
    8020    1.0599107   -1314.2004    51.961122    21820.062    3.1885758    27.943791 
    8030     1.070276   -1314.2126    51.804911    21820.062    3.1885758    27.943791 
    8040    1.0798027   -1314.2257    51.629777    21820.062    3.1885758    27.943791 
    8050    1.0882474   -1314.2399     51.43593    21820.062    3.1885758    27.943791 
    8060    1.0953582   -1314.2549    51.223494    21820.062    3.1885758    27.943791 
    8070    1.1008957   -1314.2708    50.992553    21820.062    3.1885758    27.943791 
    8080    1.1046757   -1314.2874    50.743264    21820.062    3.1885758    27.943791 
    8090     1.106637   -1314.3049    50.476059    21820.062    3.1885758    27.943791 
    8100     1.106926    -1314.323     50.19189    21820.062    3.1885758    27.943791 
    8110    1.1059603   -1314.3419    49.892424    21820.062    3.1885758    27.943791 
    8120    1.1044068   -1314.3614    49.579978    21820.062    3.1885758    27.943791 
    8130    1.1030333   -1314.3816    49.257091    21820.062    3.1885758    27.943791 
    8140    1.1024828   -1314.4025    48.925881    21820.062    3.1885758    27.943791 
    8150    1.1030977    -1314.424    48.587582    21820.062    3.1885758    27.943791 
    8160     1.104887   -1314.4462    48.242525    21820.062    3.1885758    27.943791 
    8170    1.1076181   -1314.4689    47.890475    21820.062    3.1885758    27.943791 
    8180    1.1109438   -1314.4922    47.531058    21820.062    3.1885758    27.943791 
    8190     1.114504   -1314.5159    47.164062    21820.062    3.1885758    27.943791 
    8200    1.1179838   -1314.5401    46.789604    21820.062    3.1885758    27.943791 
    8210    1.1211421   -1314.5647     46.40818    21820.062    3.1885758    27.943791 
    8220    1.1238211   -1314.5895    46.020667    21820.062    3.1885758    27.943791 
    8230    1.1259446   -1314.6145    45.628277    21820.062    3.1885758    27.943791 
    8240    1.1275035   -1314.6395    45.232492    21820.062    3.1885758    27.943791 
    8250    1.1285345   -1314.6646    44.834968    21820.062    3.1885758    27.943791 
    8260    1.1290923   -1314.6895    44.437434    21820.062    3.1885758    27.943791 
    8270    1.1292263   -1314.7143    44.041604    21820.062    3.1885758    27.943791 
    8280    1.1289642   -1314.7388    43.649117    21820.062    3.1885758    27.943791 
    8290    1.1283081   -1314.7629     43.26151    21820.062    3.1885758    27.943791 
    8300    1.1272376   -1314.7866     42.88022    21820.062    3.1885758    27.943791 
    8310      1.12572   -1314.8097    42.506592    21820.062    3.1885758    27.943791 
    8320    1.1237195   -1314.8321    42.141892    21820.062    3.1885758    27.943791 
    8330    1.1212054   -1314.8539    41.787313    21820.062    3.1885758    27.943791 
    8340    1.1181571   -1314.8749    41.443968    21820.062    3.1885758    27.943791 
    8350    1.1145656   -1314.8951    41.112879    21820.062    3.1885758    27.943791 
    8360    1.1104337   -1314.9143    40.794958    21820.062    3.1885758    27.943791 
    8370    1.1057745   -1314.9327    40.490998    21820.062    3.1885758    27.943791 
    8380    1.1006099     -1314.95    40.201649    21820.062    3.1885758    27.943791 
    8390    1.0949691   -1314.9664    39.927418    21820.062    3.1885758    27.943791 
    8400    1.0888871   -1314.9818    39.668657    21820.062    3.1885758    27.943791 
    8410    1.0824046   -1314.9961    39.425564    21820.062    3.1885758    27.943791 
    8420    1.0755668   -1315.0094    39.198185    21820.062    3.1885758    27.943791 
    8430    1.0684234   -1315.0217     38.98642    21820.062    3.1885758    27.943791 
    8440    1.0610277    -1315.033    38.790033    21820.062    3.1885758    27.943791 
    8450    1.0534362   -1315.0434     38.60866    21820.062    3.1885758    27.943791 
    8460    1.0457084   -1315.0528    38.441823    21820.062    3.1885758    27.943791 
    8470    1.0379054   -1315.0613    38.288944    21820.062    3.1885758    27.943791 
    8480      1.03009    -1315.069    38.149363    21820.062    3.1885758    27.943791 
    8490    1.0223253   -1315.0759    38.022351    21820.062    3.1885758    27.943791 
    8500    1.0146746   -1315.0821    37.907132    21820.062    3.1885758    27.943791 
    8510    1.0072005   -1315.0876      37.8029    21820.062    3.1885758    27.943791 
    8520   0.99996438   -1315.0925    37.708838    21820.062    3.1885758    27.943791 
    8530   0.99302581   -1315.0968    37.624135    21820.062    3.1885758    27.943791 
    8540   0.98644219   -1315.1005    37.548006    21820.062    3.1885758    27.943791 
    8550   0.98026832   -1315.1038    37.479709    21820.062    3.1885758    27.943791 
    8560   0.97455606   -1315.1067    37.418559    21820.062    3.1885758    27.943791 
    8570   0.96935413   -1315.1092    37.363947    21820.062    3.1885758    27.943791 
    8580   0.96470785   -1315.1114    37.315347    21820.062    3.1885758    27.943791 
    8590   0.96065895   -1315.1132    37.272332    21820.062    3.1885758    27.943791 
    8600   0.95724531   -1315.1148    37.234583    21820.062    3.1885758    27.943791 
    8610   0.95450068   -1315.1161     37.20189    21820.062    3.1885758    27.943791 
    8620   0.95245418   -1315.1171    37.174161    21820.062    3.1885758    27.943791 
    8630   0.95112949   -1315.1178    37.151422    21820.062    3.1885758    27.943791 
    8640   0.95054375   -1315.1183    37.133811    21820.062    3.1885758    27.943791 
    8650    0.9507059   -1315.1185    37.121573    21820.062    3.1885758    27.943791 
    8660   0.95161437   -1315.1185     37.11505    21820.062    3.1885758    27.943791 
    8670   0.95325431   -1315.1181    37.114665    21820.062    3.1885758    27.943791 
    8680   0.95559417   -1315.1173    37.120905    21820.062    3.1885758    27.943791 
    8690   0.95858221   -1315.1162    37.134294    21820.062    3.1885758    27.943791 
    8700   0.96214347   -1315.1146    37.155377    21820.062    3.1885758    27.943791 
    8710   0.96617788   -1315.1125    37.184694    21820.062    3.1885758    27.943791 
    8720   0.97056057   -1315.1099    37.222764    21820.062    3.1885758    27.943791 
    8730   0.97514497   -1315.1067    37.270071    21820.062    3.1885758    27.943791 
    8740   0.97976886   -1315.1029    37.327063    21820.062    3.1885758    27.943791 
    8750     0.984263   -1315.0984    37.394149    21820.062    3.1885758    27.943791 
    8760   0.98846095   -1315.0932    37.471712    21820.062    3.1885758    27.943791 
    8770   0.99220878   -1315.0872    37.560107    21820.062    3.1885758    27.943791 
    8780   0.99537312   -1315.0803    37.659669    21820.062    3.1885758    27.943791 
    8790   0.99784678   -1315.0726    37.770711    21820.062    3.1885758    27.943791 
    8800   0.99955172   -1315.0641    37.893519    21820.062    3.1885758    27.943791 
    8810    1.0004397   -1315.0546    38.028342    21820.062    3.1885758    27.943791 
    8820    1.0004911   -1315.0442    38.175386    21820.062    3.1885758    27.943791 
    8830    0.9997129   -1315.0329    38.334807    21820.062    3.1885758    27.943791 
    8840   0.99813555   -1315.0207      38.5067    21820.062    3.1885758    27.943791 
    8850   0.99581007   -1315.0076    38.691104    21820.062    3.1885758    27.943791 
    8860   0.99280455   -1314.9937       38.888    21820.062    3.1885758    27.943791 
    8870   0.98920071   -1314.9789     39.09731    21820.062    3.1885758    27.943791 
    8880   0.98509018   -1314.9632    39.318908    21820.062    3.1885758    27.943791 
    8890   0.98057051   -1314.9468    39.552618    21820.062    3.1885758    27.943791 
    8900   0.97574088   -1314.9296    39.798219    21820.062    3.1885758    27.943791 
    8910   0.97069744   -1314.9117    40.055449    21820.062    3.1885758    27.943791 
    8920   0.96552835   -1314.8932    40.324005    21820.062    3.1885758    27.943791 
    8930   0.96030869    -1314.874    40.603534    21820.062    3.1885758    27.943791 
    8940   0.95509568   -1314.8542    40.893638    21820.062    3.1885758    27.943791 
    8950   0.94992473   -1314.8338    41.193857    21820.062    3.1885758    27.943791 
    8960   0.94480737   -1314.8129    41.503671    21820.062    3.1885758    27.943791 
    8970   0.93973172   -1314.7915    41.822499    21820.062    3.1885758    27.943791 
    8980   0.93466658   -1314.7696    42.149702    21820.062    3.1885758    27.943791 
[...]
   57860    132.65919   -1092.9111     3702.873    21820.062    3.1885758    27.943791 
   57870    133.23346   -1093.7531    3691.4451    21820.062    3.1885758    27.943791 
   57880     133.7356   -1094.4158    3681.7538    21820.062    3.1885758    27.943791 
   57890    134.14887   -1094.9724    3673.5649    21820.062    3.1885758    27.943791 
   57900    134.45596   -1095.4712    3666.7582    21820.062    3.1885758    27.943791 
   57910    134.64498   -1095.9681    3661.1495    21820.062    3.1885758    27.943791 
   57920    134.70515   -1096.2754    3658.0066    21820.062    3.1885758    27.943791 
   57930     134.6338   -1096.2168    3658.4631    21820.062    3.1885758    27.943791 
   57940    134.43621   -1095.8003    3662.4185    21820.062    3.1885758    27.943791 
   57950    134.13269   -1095.5721    3666.3554    21820.062    3.1885758    27.943791 
   57960    133.75454   -1095.0624    3672.9328    21820.062    3.1885758    27.943791 
   57970    133.32845   -1094.6058    3679.7672    21820.062    3.1885758    27.943791 
   57980    132.88304   -1094.1463    3686.9249    21820.062    3.1885758    27.943791 
   57990    132.43701   -1094.0068    3692.2424    21820.062    3.1885758    27.943791 
   58000     131.9909   -1093.4265     3700.384    21820.062    3.1885758    27.943791 
   58010    131.53055   -1092.7032    3709.6188    21820.062    3.1885758    27.943791 
   58020    131.03053   -1092.0204    3718.9726    21820.062    3.1885758    27.943791 
   58030    130.47207   -1091.0798    3730.4124    21820.062    3.1885758    27.943791 
   58040    129.85068   -1090.0952    3742.6194    21820.062    3.1885758    27.943791 
   58050    129.18375   -1089.0441    3755.5663    21820.062    3.1885758    27.943791 
   58060    128.50764   -1087.5624     3771.159    21820.062    3.1885758    27.943791 
   58070    127.87041   -1086.4096     3784.236    21820.062    3.1885758    27.943791 
   58080     127.3289   -1085.7192    3793.4546    21820.062    3.1885758    27.943791 
   58090    126.93298   -1084.6566    3803.4699    21820.062    3.1885758    27.943791 
   58100    126.71716   -1084.6974    3804.8005    21820.062    3.1885758    27.943791 
   58110    126.69838   -1084.8848    3803.1664    21820.062    3.1885758    27.943791 
   58120    126.87318   -1085.3608    3797.7492    21820.062    3.1885758    27.943791 
   58130    127.21199   -1086.1555    3788.6334    21820.062    3.1885758    27.943791 
   58140    127.66768   -1086.6094     3780.334    21820.062    3.1885758    27.943791 
   58150    128.18666   -1087.2323    3770.2472    21820.062    3.1885758    27.943791 
   58160    128.70935   -1088.2796    3757.3102    21820.062    3.1885758    27.943791 
   58170    129.19426   -1088.8789    3747.3598    21820.062    3.1885758    27.943791 
   58180     129.6105   -1089.8442    3735.6932    21820.062    3.1885758    27.943791 
   58190    129.94335   -1090.4168    3727.1826    21820.062    3.1885758    27.943791 
   58200    130.19064   -1090.8384    3720.4189    21820.062    3.1885758    27.943791 
   58210    130.35649   -1091.2881    3714.2942    21820.062    3.1885758    27.943791 
   58220    130.44868   -1091.1872    3712.3224    21820.062    3.1885758    27.943791 
   58230    130.48436   -1091.1262    3710.8032    21820.062    3.1885758    27.943791 
   58240    130.47225   -1091.2658    3708.6458    21820.062    3.1885758    27.943791 
   58250    130.42133   -1091.2505    3707.9474    21820.062    3.1885758    27.943791 
   58260    130.34681    -1091.054    3708.8117    21820.062    3.1885758    27.943791 
   58270    130.25313   -1091.2968    3707.3544    21820.062    3.1885758    27.943791 
   58280    130.13619   -1091.3098    3707.6499    21820.062    3.1885758    27.943791 
   58290    129.99514   -1091.4107    3707.7152    21820.062    3.1885758    27.943791 
   58300    129.84126   -1091.7886     3706.382    21820.062    3.1885758    27.943791 
   58310    129.67294   -1091.5809    3708.8798    21820.062    3.1885758    27.943791 
   58320    129.49801   -1091.1187    3713.0422    21820.062    3.1885758    27.943791 
   58330    129.32858   -1090.9608    3715.2562    21820.062    3.1885758    27.943791 
   58340    129.18135   -1090.8367    3717.0171    21820.062    3.1885758    27.943791 
   58350    129.07349   -1090.5018    3719.6911    21820.062    3.1885758    27.943791 
   58360    129.01231   -1090.3849      3720.53    21820.062    3.1885758    27.943791 
   58370    128.99863   -1090.3889    3720.0988    21820.062    3.1885758    27.943791 
   58380    129.02687   -1090.0633     3721.207    21820.062    3.1885758    27.943791 
   58390    129.09256   -1090.5312    3717.0062    21820.062    3.1885758    27.943791 
   58400    129.18537   -1090.8196    3713.5682    21820.062    3.1885758    27.943791 
   58410    129.30061   -1091.3884    3708.1291    21820.062    3.1885758    27.943791 
   58420    129.43431   -1091.7892    3703.5084    21820.062    3.1885758    27.943791 
   58430    129.58387   -1092.0918    3699.3266    21820.062    3.1885758    27.943791 
   58440    129.74441   -1092.4614    3694.6313    21820.062    3.1885758    27.943791 
   58450     129.9095   -1092.5934    3691.4039    21820.062    3.1885758    27.943791 
   58460    130.06094   -1092.6817    3688.5736    21820.062    3.1885758    27.943791 
   58470    130.18022   -1093.6325    3680.7263    21820.062    3.1885758    27.943791 
   58480    130.24965   -1093.7732    3678.3698    21820.062    3.1885758    27.943791 
   58490    130.24773   -1093.9321    3676.5392    21820.062    3.1885758    27.943791 
   58500    130.16232   -1093.9188    3676.4673    21820.062    3.1885758    27.943791 
   58510    129.99624   -1093.7866    3677.7499    21820.062    3.1885758    27.943791 
   58520    129.77063    -1093.444    3680.7181    21820.062    3.1885758    27.943791 
   58530    129.52564     -1093.27    3682.6695    21820.062    3.1885758    27.943791 
   58540    129.31319   -1093.1208    3684.0801    21820.062    3.1885758    27.943791 
   58550    129.17343    -1093.228    3683.1465    21820.062    3.1885758    27.943791 
   58560    129.13128   -1093.4323    3680.6507    21820.062    3.1885758    27.943791 
   58570    129.18198   -1093.2846    3679.3634    21820.062    3.1885758    27.943791 
   58580    129.30014    -1093.607    3674.4314    21820.062    3.1885758    27.943791 
   58590    129.44355   -1094.0417    3668.3988    21820.062    3.1885758    27.943791 
   58600    129.57454   -1094.6802    3661.1002    21820.062    3.1885758    27.943791 
   58610    129.66421   -1094.9147    3656.6448    21820.062    3.1885758    27.943791 
   58620    129.68773   -1095.0273    3653.5162    21820.062    3.1885758    27.943791 
   58630    129.64084   -1095.0609    3651.5522    21820.062    3.1885758    27.943791 
   58640    129.53408   -1094.6381    3653.0546    21820.062    3.1885758    27.943791 
   58650    129.38588   -1094.2773    3654.7177    21820.062    3.1885758    27.943791 
   58660    129.21491   -1094.1537      3655.33    21820.062    3.1885758    27.943791 
   58670    129.03791   -1093.7764    3657.8379    21820.062    3.1885758    27.943791 
   58680     128.8615   -1093.7938    3658.2314    21820.062    3.1885758    27.943791 
   58690    128.67769   -1093.8012    3659.0549    21820.062    3.1885758    27.943791 
   58700    128.47743   -1093.7112    3660.9633    21820.062    3.1885758    27.943791 
   58710    128.24202   -1093.6679    3663.1769    21820.062    3.1885758    27.943791 
   58720    127.95846   -1093.5044    3666.8329    21820.062    3.1885758    27.943791 
   58730    127.61752   -1092.9371    3673.7551    21820.062    3.1885758    27.943791 
   58740    127.21449   -1092.4497    3680.9948    21820.062    3.1885758    27.943791 
   58750    126.74805   -1091.9177    3689.3159    21820.062    3.1885758    27.943791 
   58760    126.21479   -1091.4582    3697.9468    21820.062    3.1885758    27.943791 
   58770    125.61536   -1090.6059    3709.6961    21820.062    3.1885758    27.943791 
   58780    124.95458   -1089.5882    3723.0793    21820.062    3.1885758    27.943791 
   58790    124.23612   -1088.3616    3738.2152    21820.062    3.1885758    27.943791 
   58800    123.47373   -1087.6099    3750.6708    21820.062    3.1885758    27.943791 
   58810    122.69572   -1086.2692    3766.7124    21820.062    3.1885758    27.943791 
   58820    121.93741     -1084.81    3783.0477    21820.062    3.1885758    27.943791 
   58830     121.2426   -1083.8133    3795.6352    21820.062    3.1885758    27.943791 
   58840    120.65913   -1082.8831    3806.4347    21820.062    3.1885758    27.943791 
   58850    120.23418   -1082.4584    3812.2782    21820.062    3.1885758    27.943791 
   58860      120.005   -1082.1524    3815.1527    21820.062    3.1885758    27.943791 
   58870      119.998   -1081.9066    3815.1681    21820.062    3.1885758    27.943791 
   58880    120.22351   -1082.4491    3807.7742    21820.062    3.1885758    27.943791 
   58890    120.67298   -1083.6196    3794.1109    21820.062    3.1885758    27.943791 
   58900    121.31417   -1084.4375    3780.5444    21820.062    3.1885758    27.943791 
   58910    122.10285    -1086.286    3758.9891    21820.062    3.1885758    27.943791 
   58920     122.9926   -1087.8194    3738.2681    21820.062    3.1885758    27.943791 
   58930    123.93075    -1089.844    3713.9379    21820.062    3.1885758    27.943791 
   58940    124.86723   -1091.5725    3691.3816    21820.062    3.1885758    27.943791 
   58950    125.76032   -1093.2134    3669.8197    21820.062    3.1885758    27.943791 
   58960     126.5711   -1094.7579    3649.7254    21820.062    3.1885758    27.943791 
   58970    127.27345   -1095.9462    3633.0259    21820.062    3.1885758    27.943791 
   58980    127.85039   -1097.0724    3618.1049    21820.062    3.1885758    27.943791 
   58990    128.30104   -1097.7662    3607.3351    21820.062    3.1885758    27.943791 
   59000    128.63231   -1098.2106    3599.5687    21820.062    3.1885758    27.943791 
   59010    128.85476   -1099.2558    3589.4582    21820.062    3.1885758    27.943791 
   59020    128.98185   -1099.5218    3585.3762    21820.062    3.1885758    27.943791 
   59030    129.02662   -1099.5682    3583.7344    21820.062    3.1885758    27.943791 
   59040      128.995   -1099.6739     3582.693    21820.062    3.1885758    27.943791 
   59050    128.88992   -1099.4258    3584.7118    21820.062    3.1885758    27.943791 
   59060    128.71271   -1099.4888    3585.6108    21820.062    3.1885758    27.943791 
   59070    128.46449   -1099.2994     3588.754    21820.062    3.1885758    27.943791 
   59080    128.15349   -1098.8943    3593.7519    21820.062    3.1885758    27.943791 
   59090    127.79311   -1098.8832    3596.6015    21820.062    3.1885758    27.943791 
   59100    127.40994   -1098.4209     3602.219    21820.062    3.1885758    27.943791 
   59110    127.03723   -1097.9008    3607.8368    21820.062    3.1885758    27.943791 
   59120    126.70823   -1097.1269    3614.2948    21820.062    3.1885758    27.943791 
   59130     126.4561   -1097.0078    3615.6286    21820.062    3.1885758    27.943791 
   59140    126.31566   -1097.0061     3614.853    21820.062    3.1885758    27.943791 
   59150    126.31129   -1097.5761    3608.9297    21820.062    3.1885758    27.943791 
   59160    126.45885    -1098.299    3600.3128    21820.062    3.1885758    27.943791 
   59170    126.75743    -1098.781    3591.4175    21820.062    3.1885758    27.943791 
   59180    127.20001    -1099.208    3581.2478    21820.062    3.1885758    27.943791 
   59190    127.76627   -1100.7295    3562.9953    21820.062    3.1885758    27.943791 
   59200    128.42659   -1101.7045    3547.1628    21820.062    3.1885758    27.943791 
   59210    129.13638   -1103.0498    3528.5176    21820.062    3.1885758    27.943791 
   59220    129.85676   -1104.2408    3510.7729    21820.062    3.1885758    27.943791 
   59230    130.54686   -1105.3886    3493.7179    21820.062    3.1885758    27.943791 
   59240    131.16629   -1106.7038    3476.5072    21820.062    3.1885758    27.943791 
   59250    131.68195   -1107.3261    3464.8891    21820.062    3.1885758    27.943791 
   59260    132.05701    -1107.987    3454.7349    21820.062    3.1885758    27.943791 
   59270    132.25882   -1108.5639    3447.1424    21820.062    3.1885758    27.943791 
   59280    132.25893   -1109.1617    3441.7377    21820.062    3.1885758    27.943791 
   59290     132.0413   -1108.8474    3444.4742    21820.062    3.1885758    27.943791 
   59300    131.59301   -1108.3138    3451.1427    21820.062    3.1885758    27.943791 
   59310    130.91987   -1107.4706    3462.2473    21820.062    3.1885758    27.943791 
   59320    130.04007   -1106.0254    3479.3801    21820.062    3.1885758    27.943791 
   59330    128.98699   -1104.8379    3496.8741    21820.062    3.1885758    27.943791 
   59340    127.80466   -1103.1382    3518.9468    21820.062    3.1885758    27.943791 
   59350     126.5542   -1101.1152    3543.7778    21820.062    3.1885758    27.943791 
   59360    125.30573   -1099.3399    3567.0813    21820.062    3.1885758    27.943791 
   59370    124.13486   -1097.8015    3588.1136    21820.062    3.1885758    27.943791 
   59380    123.11765   -1096.5883    3605.5614    21820.062    3.1885758    27.943791 
   59390    122.32066   -1095.4071    3620.5654    21820.062    3.1885758    27.943791 
   59400    121.79567   -1094.8265    3629.1257    21820.062    3.1885758    27.943791 
   59410     121.5654    -1094.929    3630.4268    21820.062    3.1885758    27.943791 
   59420    121.63161   -1094.9323    3629.2566    21820.062    3.1885758    27.943791 
   59430    121.97405   -1095.6663    3620.7471    21820.062    3.1885758    27.943791 
   59440    122.54711    -1096.818    3607.3558    21820.062    3.1885758    27.943791 
   59450     123.2768   -1098.3758    3589.8907    21820.062    3.1885758    27.943791 
   59460    124.07008   -1099.7591    3572.8133    21820.062    3.1885758    27.943791 
   59470    124.83278   -1101.3933    3554.4464    21820.062    3.1885758    27.943791 
   59480    125.47759   -1102.1413    3542.7014    21820.062    3.1885758    27.943791 
   59490    125.93159   -1102.8278    3533.2338    21820.062    3.1885758    27.943791 
   59500    126.14383   -1103.4507    3526.5776    21820.062    3.1885758    27.943791 
   59510    126.08398   -1103.6938    3524.9184    21820.062    3.1885758    27.943791 
   59520     125.7518    -1103.311    3529.7483    21820.062    3.1885758    27.943791 
   59530    125.17516   -1102.5645    3539.1757    21820.062    3.1885758    27.943791 
   59540    124.40543   -1101.6288    3551.6433    21820.062    3.1885758    27.943791 
   59550    123.50375   -1100.4467    3566.8386    21820.062    3.1885758    27.943791 
   59560    122.54309   -1099.4949     3581.068    21820.062    3.1885758    27.943791 
   59570    121.59893   -1098.4932    3595.2728    21820.062    3.1885758    27.943791 
   59580    120.73797   -1097.3187     3609.436    21820.062    3.1885758    27.943791 
   59590    120.02637   -1096.3407    3620.6071    21820.062    3.1885758    27.943791 
   59600    119.51421   -1095.7323    3627.1395    21820.062    3.1885758    27.943791 
   59610    119.24465   -1095.6067    3627.9115    21820.062    3.1885758    27.943791 
   59620    119.24197   -1096.4183     3619.849    21820.062    3.1885758    27.943791 
   59630    119.51841   -1096.6623    3612.1686    21820.062    3.1885758    27.943791 
   59640    120.06058   -1097.5968    3597.2269    21820.062    3.1885758    27.943791 
   59650    120.83507   -1099.0497    3576.4087    21820.062    3.1885758    27.943791 
   59660    121.79376   -1100.6553    3552.4805    21820.062    3.1885758    27.943791 
   59670    122.88075   -1102.7723    3523.8865    21820.062    3.1885758    27.943791 
   59680    124.02983   -1104.8363     3494.828    21820.062    3.1885758    27.943791 
   59690    125.17856   -1107.2456    3463.5869    21820.062    3.1885758    27.943791 
   59700    126.26603   -1109.1728    3435.9475    21820.062    3.1885758    27.943791 
   59710    127.24703   -1111.1897    3409.0044    21820.062    3.1885758    27.943791 
   59720    128.07949   -1112.4719    3388.3433    21820.062    3.1885758    27.943791 
   59730    128.73399   -1113.6877    3370.2558    21820.062    3.1885758    27.943791 
   59740    129.18644   -1114.6294    3356.3245    21820.062    3.1885758    27.943791 
   59750    129.41786   -1115.2681     3346.923    21820.062    3.1885758    27.943791 
   59760    129.42286   -1115.5714    3342.3738    21820.062    3.1885758    27.943791 
   59770     129.2039   -1115.6408    3342.0792    21820.062    3.1885758    27.943791 
   59780    128.76357   -1114.9391    3349.2622    21820.062    3.1885758    27.943791 
   59790    128.11913   -1114.4988    3357.3928    21820.062    3.1885758    27.943791 
   59800    127.29392    -1113.298    3372.5218    21820.062    3.1885758    27.943791 
   59810    126.30818   -1111.7839    3391.5247    21820.062    3.1885758    27.943791 
   59820    125.19725   -1110.3528    3411.5403    21820.062    3.1885758    27.943791 
   59830    124.00207   -1108.6971    3433.9586    21820.062    3.1885758    27.943791 
   59840    122.77339   -1106.7195    3458.7991    21820.062    3.1885758    27.943791 
   59850    121.56548   -1105.0412    3481.5676    21820.062    3.1885758    27.943791 
   59860    120.43897   -1103.4823    3502.6974    21820.062    3.1885758    27.943791 
   59870    119.45208   -1101.9328    3522.2442    21820.062    3.1885758    27.943791 
   59880    118.64964   -1100.8035    3537.1819    21820.062    3.1885758    27.943791 
   59890    118.05403   -1100.1033    3547.1694    21820.062    3.1885758    27.943791 
   59900    117.66921    -1099.396    3554.8832    21820.062    3.1885758    27.943791 
   59910    117.47004   -1099.1605    3557.5715    21820.062    3.1885758    27.943791 
   59920    117.41766   -1099.1921    3556.8653    21820.062    3.1885758    27.943791 
   59930    117.46593   -1099.5696    3552.6996    21820.062    3.1885758    27.943791 
   59940    117.58034   -1099.9716    3547.4531    21820.062    3.1885758    27.943791 
   59950    117.73063   -1100.6477    3539.8382    21820.062    3.1885758    27.943791 
   59960    117.90629   -1101.1403    3532.8008    21820.062    3.1885758    27.943791 
   59970    118.11168   -1101.7013    3524.7819    21820.062    3.1885758    27.943791 
   59980    118.36806   -1102.4371    3515.0627    21820.062    3.1885758    27.943791 
   59990    118.69126   -1103.3212    3503.7043    21820.062    3.1885758    27.943791 
   60000    119.08711   -1104.2644    3491.1983    21820.062    3.1885758    27.943791 
Loop time of 8.58703 on 1 procs for 40000 steps with 500 atoms

Performance: 402.467 ns/day, 0.060 hours/ns, 4658.187 timesteps/s
95.9% CPU use with 1 MPI tasks x no OpenMP threads

MPI task timing breakdown:
Section |  min time  |  avg time  |  max time  |%varavg| %total
---------------------------------------------------------------
Pair    | 7.6844     | 7.6844     | 7.6844     |   0.0 | 89.49
Neigh   | 0.11099    | 0.11099    | 0.11099    |   0.0 |  1.29
Comm    | 0.24917    | 0.24917    | 0.24917    |   0.0 |  2.90
Output  | 0.081467   | 0.081467   | 0.081467   |   0.0 |  0.95
Modify  | 0.35774    | 0.35774    | 0.35774    |   0.0 |  4.17
Other   |            | 0.1032     |            |       |  1.20

Nlocal:    500 ave 500 max 500 min
Histogram: 1 0 0 0 0 0 0 0 0 0
Nghost:    1223 ave 1223 max 1223 min
Histogram: 1 0 0 0 0 0 0 0 0 0
Neighs:    12393 ave 12393 max 12393 min
Histogram: 1 0 0 0 0 0 0 0 0 0

Total # of neighbors = 12393
Ave neighs/atom = 24.786
Neighbor list builds = 184
Dangerous builds = 0
Total wall time: 0:00:13
